integrator  = sd
nsteps      = 5000000
dt          = 0.002
nstxout     = 10000
nstvout     = 10000
nstenergy   = 1000
nstlog      = 1000
nstdhdl     = 100
continuation = yes
constraint_algorithm = lincs
constraints = h-bonds
lincs_iter  = 1
lincs_order = 4
cutoff-scheme = Verlet
nstlist     = 10
rcoulomb    = 1.0
rvdw        = 1.0
vdw-modifier = force-switch
rvdw-switch = 0.9
coulombtype = PME
pme_order   = 4
fourierspacing = 0.16
tc-grps     = System
tau_t       = 1.0
ref_t       = 300
pcoupl      = Parrinello-Rahman
pcoupltype  = isotropic
tau_p       = 2.0
ref_p       = 1.0
compressibility = 4.5e-5
pbc         = xyz
DispCorr    = EnerPres
gen_vel     = no
; FEP parameters (hybrid topology)
free_energy = yes
init_lambda_state = 9
fep_lambdas = 0.0 0.1 0.2 0.3 0.4 0.5 0.6 0.7 0.8 0.9 1.0
calc-lambda-neighbors = -1
sc-alpha = 0.5
sc-power = 1
sc-sigma = 0.3
sc-coul = yes
