ligand_0X5_h.pdb
    36
  -6.7680000  -6.0290000 -15.4960000  -7.3630000  -4.7560000 -15.5870000
  -6.5920000  -3.6260000 -15.8250000  -8.7620000  -9.1860000 -16.0280000
  -7.6480000  -7.1690000 -15.1630000  -9.5760000  -9.5140000 -14.9230000
 -10.4480000 -10.5960000 -15.0330000  -5.3790000  -6.1530000 -15.6880000
  -5.2250000  -3.7570000 -16.0030000  -4.6220000  -5.0120000 -15.9350000
  -9.0780000  -4.6020000 -15.4470000  -8.1400000  -7.2160000 -14.0310000
  -7.9150000  -8.0780000 -16.1160000 -10.4840000 -11.3230000 -16.1490000
  -9.7280000 -11.0610000 -17.2160000  -8.8640000  -9.9630000 -17.1810000
  -9.8320000 -11.8770000 -18.3640000  -8.8750000 -11.9800000 -19.3360000
  -7.8420000 -11.3390000 -19.2710000  -9.0940000 -12.9030000 -20.5280000
  -8.4480000 -12.5430000 -21.8730000  -7.9000000 -13.7090000 -21.0550000
  -4.5810000  -7.6960000 -15.6770000  -7.0350000  -2.6950000 -15.8690000
  -9.5270000  -8.9640000 -14.0510000 -11.0700000 -10.8350000 -14.2450000
  -4.6490000  -2.9210000 -16.1870000  -3.6020000  -5.0960000 -16.0690000
  -7.4600000  -7.9480000 -16.9790000  -8.2990000  -9.7270000 -18.0120000
 -10.6520000 -12.4100000 -18.4730000 -10.0870000 -13.1360000 -20.2050000
  -8.9740000 -12.7310000 -22.7860000  -8.0290000 -11.6540000 -22.2960000
  -6.9460000 -13.6250000 -20.5780000  -7.7140000 -14.7450000 -21.2470000
