%VERSION  VERSION_STAMP = V0001.000  DATE = 12/16/25  17:09:56                  
%FLAG TITLE                                                                     
%FORMAT(20a4)                                                                   
ligand_0X5_h.pdb                                                                
%FLAG POINTERS                                                                  
%FORMAT(10I8)                                                                   
      36      10      13      25      29      35      62      51       0       0
     181       1      25      35      51      13      23      15      11       0
       0       0       0       0       0       0       0       0      36       0
       0
%FLAG ATOM_NAME                                                                 
%FORMAT(20a4)                                                                   
C4  C5  C6  C11 C8  C12 C13 C3  C1  C2  Cl1 O9  N10 N14 C15 C16 N17 C18 O19 C20 
C21 C22 Cl2 H   H1  H2  H3  H4  H5  H6  H7  H8  H9  H10 H11 H12 
%FLAG CHARGE                                                                    
%FORMAT(5E16.8)                                                                 
 -2.61672228E+00  9.45737370E-01 -2.35067670E+00  2.30694318E+00  1.26043649E+01
 -5.52682359E+00  8.09434566E+00  9.45737370E-01 -1.74934080E+00 -2.35067670E+00
 -1.09151577E+00 -1.00240872E+01 -8.38408023E+00 -1.34116128E+01  1.00259095E+01
 -5.83660269E+00 -9.97488702E+00  1.27574322E+01 -1.08076461E+01 -4.18566231E+00
 -1.89329697E+00 -1.89329697E+00 -1.09151577E+00  2.86090110E+00  3.33468090E+00
  4.57379730E-01  2.69690040E+00  2.86090110E+00  6.02247015E+00  3.24356940E+00
  6.07713705E+00  1.79854101E+00  1.53431766E+00  1.53431766E+00  1.53431766E+00
  1.53431766E+00
%FLAG ATOMIC_NUMBER                                                             
%FORMAT(10I8)                                                                   
       6       6       6       6       6       6       6       6       6       6
      17       8       7       7       6       6       7       6       8       6
       6       6      17       1       1       1       1       1       1       1
       1       1       1       1       1       1
%FLAG MASS                                                                      
%FORMAT(5E16.8)                                                                 
  1.20100000E+01  1.20100000E+01  1.20100000E+01  1.20100000E+01  1.20100000E+01
  1.20100000E+01  1.20100000E+01  1.20100000E+01  1.20100000E+01  1.20100000E+01
  3.54500000E+01  1.60000000E+01  1.40100000E+01  1.40100000E+01  1.20100000E+01
  1.20100000E+01  1.40100000E+01  1.20100000E+01  1.60000000E+01  1.20100000E+01
  1.20100000E+01  1.20100000E+01  3.54500000E+01  1.00800000E+00  1.00800000E+00
  1.00800000E+00  1.00800000E+00  1.00800000E+00  1.00800000E+00  1.00800000E+00
  1.00800000E+00  1.00800000E+00  1.00800000E+00  1.00800000E+00  1.00800000E+00
  1.00800000E+00
%FLAG ATOM_TYPE_INDEX                                                           
%FORMAT(10I8)                                                                   
       1       1       1       1       1       1       1       1       1       1
       2       3       4       5       1       1       4       1       3       6
       6       6       2       7       7       8       7       7       9       7
       9      10      10      10      10      10
%FLAG NUMBER_EXCLUDED_ATOMS                                                     
%FORMAT(10I8)                                                                   
      14      11       8      13       9       9       7       8       6       4
       1       2       5       8       8       6       8      10       5       8
       6       5       1       1       1       1       1       1       1       1
       1       4       3       2       1       1
%FLAG NONBONDED_PARM_INDEX                                                      
%FORMAT(10I8)                                                                   
       1       2       4       7      11      16      22      29      37      46
       2       3       5       8      12      17      23      30      38      47
       4       5       6       9      13      18      24      31      39      48
       7       8       9      10      14      19      25      32      40      49
      11      12      13      14      15      20      26      33      41      50
      16      17      18      19      20      21      27      34      42      51
      22      23      24      25      26      27      28      35      43      52
      29      30      31      32      33      34      35      36      44      53
      37      38      39      40      41      42      43      44      45      54
      46      47      48      49      50      51      52      53      54      55
%FLAG RESIDUE_LABEL                                                             
%FORMAT(20a4)                                                                   
0X5 
%FLAG RESIDUE_POINTER                                                           
%FORMAT(10I8)                                                                   
       1
%FLAG BOND_FORCE_CONSTANT                                                       
%FORMAT(5E16.8)                                                                 
  3.54250000E+02  2.62840000E+02  1.87980000E+02  3.60690000E+02  3.06730000E+02
  3.36070000E+02  5.90600000E+02  3.86490000E+02  3.56820000E+02  4.73590000E+02
  2.52530000E+02  2.48860000E+02  3.59910000E+02
%FLAG BOND_EQUIL_VALUE                                                          
%FORMAT(5E16.8)                                                                 
  1.39860000E+00  1.49070000E+00  1.75720000E+00  1.08600000E+00  1.40700000E+00
  1.37980000E+00  1.21900000E+00  1.33920000E+00  1.08850000E+00  1.01320000E+00
  1.50350000E+00  1.50820000E+00  1.08650000E+00
%FLAG ANGLE_FORCE_CONSTANT                                                      
%FORMAT(5E16.8)                                                                 
  6.36700000E+01  6.40600000E+01  6.70600000E+01  7.79600000E+01  6.14400000E+01
  4.49000000E+01  7.66200000E+01  5.66800000E+01  5.73700000E+01  6.73400000E+01
  6.81700000E+01  4.48000000E+01  8.31500000E+01  8.72100000E+01  5.01000000E+01
  7.51400000E+01  6.69000000E+01  5.96500000E+01  4.28000000E+01  7.74200000E+01
  8.35100000E+01  4.24900000E+01  3.50500000E+01
%FLAG ANGLE_EQUIL_VALUE                                                         
%FORMAT(5E16.8)                                                                 
  2.09474507E+00  2.08357495E+00  2.00870030E+00  2.13977458E+00  2.10015559E+00
  2.09230160E+00  2.22547028E+00  2.02528093E+00  2.04657396E+00  2.09771213E+00
  2.14570870E+00  2.09998106E+00  2.04622489E+00  2.14762857E+00  2.02493187E+00
  1.97710982E+00  1.99753019E+00  2.05931487E+00  2.03557838E+00  2.14186898E+00
  1.04719800E+00  2.05407888E+00  1.99718112E+00
%FLAG DIHEDRAL_FORCE_CONSTANT                                                   
%FORMAT(5E16.8)                                                                 
  3.62500000E+00  1.00000000E+00  1.13000000E+00  8.00000000E-01  2.50000000E+00
  2.12250000E+00  5.80000000E-01  1.41000000E+00  4.50000000E-01  4.80000000E+00
  2.00000000E+00  0.00000000E+00  1.55555556E-01  1.10000000E+00  1.05000000E+01
%FLAG DIHEDRAL_PERIODICITY                                                      
%FORMAT(5E16.8)                                                                 
  2.00000000E+00  1.00000000E+00  2.00000000E+00  3.00000000E+00  2.00000000E+00
  2.00000000E+00  2.00000000E+00  2.00000000E+00  2.00000000E+00  2.00000000E+00
  1.00000000E+00  2.00000000E+00  3.00000000E+00  2.00000000E+00  2.00000000E+00
%FLAG DIHEDRAL_PHASE                                                            
%FORMAT(5E16.8)                                                                 
  3.14159400E+00  3.14159400E+00  3.14159400E+00  0.00000000E+00  3.14159400E+00
  3.14159400E+00  3.14159400E+00  3.14159400E+00  3.14159400E+00  3.14159400E+00
  0.00000000E+00  3.14159400E+00  0.00000000E+00  3.14159400E+00  3.14159400E+00
%FLAG SCEE_SCALE_FACTOR                                                         
%FORMAT(5E16.8)                                                                 
  1.20000000E+00  1.20000000E+00  1.20000000E+00  1.20000000E+00  1.20000000E+00
  1.20000000E+00  1.20000000E+00  1.20000000E+00  1.20000000E+00  1.20000000E+00
  1.20000000E+00  1.20000000E+00  1.20000000E+00  0.00000000E+00  0.00000000E+00
%FLAG SCNB_SCALE_FACTOR                                                         
%FORMAT(5E16.8)                                                                 
  2.00000000E+00  2.00000000E+00  2.00000000E+00  2.00000000E+00  2.00000000E+00
  2.00000000E+00  2.00000000E+00  2.00000000E+00  2.00000000E+00  2.00000000E+00
  2.00000000E+00  2.00000000E+00  2.00000000E+00  0.00000000E+00  0.00000000E+00
%FLAG SOLTY                                                                     
%FORMAT(5E16.8)                                                                 
  0.00000000E+00  0.00000000E+00  0.00000000E+00  0.00000000E+00  0.00000000E+00
  0.00000000E+00  0.00000000E+00  0.00000000E+00  0.00000000E+00  0.00000000E+00
  0.00000000E+00
%FLAG LENNARD_JONES_ACOEF                                                       
%FORMAT(5E16.8)                                                                 
  6.96551276E+05  1.49062160E+06  3.17107030E+06  5.17507491E+05  1.11993097E+06
  3.76435470E+05  6.99381362E+05  1.49942414E+06  5.17814271E+05  7.01825028E+05
  7.69642101E+05  1.64251971E+06  5.74782316E+05  7.73425391E+05  8.49322032E+05
  8.43969952E+05  1.80018612E+06  6.30925504E+05  8.48258258E+05  9.31115275E+05
  1.02073671E+06  7.52549148E+04  1.66104821E+05  5.27277400E+04  7.48403283E+04
  8.43518904E+04  9.27554496E+04  6.90855956E+03  6.27751680E+04  1.39186903E+05
  4.36069364E+04  6.23418310E+04  7.05112106E+04  7.75673747E+04  5.62610481E+03
  4.56536476E+03  1.71458823E+03  4.18912581E+03  9.87857350E+02  1.65195713E+03
  2.01475241E+03  2.23577481E+03  9.04434904E+01  6.76796831E+01  1.34728399E-01
  8.12662403E+04  1.79601155E+05  5.68021765E+04  8.07866982E+04  9.11435380E+04
  1.00235148E+05  7.41026906E+03  6.02863188E+03  9.47421632E+01  7.94617769E+03
%FLAG LENNARD_JONES_BCOEF                                                       
%FORMAT(5E16.8)                                                                 
  5.24668528E+02  9.81118883E+02  1.82923847E+03  4.98871431E+02  9.38113535E+02
  4.69350655E+02  5.48900066E+02  1.02737257E+03  5.21008860E+02  5.74088001E+02
  5.44830041E+02  1.01742263E+03  5.19385932E+02  5.70234696E+02  5.65406768E+02
  5.90251928E+02  1.10195051E+03  5.62969425E+02  6.17825399E+02  6.12468585E+02
  6.63431737E+02  1.09570372E+02  2.08087638E+02  1.01173582E+02  1.14083104E+02
  1.14599119E+02  1.24325688E+02  2.10929191E+01  1.00073628E+02  1.90482178E+02
  9.20079458E+01  1.04122183E+02  1.04776275E+02  1.13692208E+02  1.90347353E+01
  1.71467049E+01  1.46824710E+01  2.93366416E+01  1.22938581E+01  1.50468782E+01
  1.57231024E+01  1.71355763E+01  2.14252117E+00  1.85338491E+00  7.34107347E-02
  1.21392023E+02  2.30684859E+02  1.11953944E+02  1.26366740E+02  1.27000718E+02
  1.37787728E+02  2.32899892E+01  2.10068861E+01  2.33785449E+00  2.57122925E+01
%FLAG BONDS_INC_HYDROGEN                                                        
%FORMAT(10I8)                                                                   
       6      69       4      15      72       4      18      75       9      24
      78       4      27      81       4      36      84      10      45      87
       4      48      90      10      57      93      13      60      96      13
      60      99      13      63     102      13      63     105      13
%FLAG BONDS_WITHOUT_HYDROGEN                                                    
%FORMAT(10I8)                                                                   
       0      21       1       0       3       1       0      12       2       3
       6       1       3      30       3       6      24       1       9      45
       1       9      36       5       9      15       1      12      36       6
      12      33       7      15      18       1      18      39       8      21
      27       1      21      66       3      24      27       1      39      42
       8      42      48       5      42      45       1      48      51       6
      51      57      11      51      54       7      57      60      12      57
      63      12      60      63      12
%FLAG ANGLES_INC_HYDROGEN                                                       
%FORMAT(10I8)                                                                   
       3       6      69       6       6      24      78       6       9      45
      87       6       9      36      84       8       9      15      72       6
      12      36      84       9      15      18      75      12      18      15
      72       6      21      27      81       6      24       6      69       6
      24      27      81       6      27      24      78       6      39      18
      75      15      42      48      90       8      42      45      87       6
      51      48      90       9      51      57      93      19      57      60
      96      22      57      60      99      22      57      63     102      22
      57      63     105      22      60      57      93      22      60      63
     102      22      60      63     105      22      63      57      93      22
      63      60      96      22      63      60      99      22      96      60
      99      23     102      63     105      23
%FLAG ANGLES_WITHOUT_HYDROGEN                                                   
%FORMAT(10I8)                                                                   
       0      21      27       1       0      21      66       2       0       3
       6       1       0       3      30       2       0      12      36       3
       0      12      33       4       3       0      21       1       3       0
      12       5       3       6      24       1       6       3      30       2
       6      24      27       1       9      45      42       1       9      36
      12       7       9      15      18       1      12       0      21       5
      15       9      45       1      15       9      36      10      15      18
      39      11      18      39      42      13      21      27      24       1
      27      21      66       2      33      12      36      14      36       9
      45      10      39      42      48      16      39      42      45      11
      42      48      51       7      45      42      48      10      48      51
      57      17      48      51      54      14      51      57      60      18
      51      57      63      18      54      51      57      20      57      60
      63      21      57      63      60      21      60      57      63      21
%FLAG DIHEDRALS_INC_HYDROGEN                                                    
%FORMAT(10I8)                                                                   
       0      21      27      81       1       0       3       6      69       1
       0      12      36      84       5       3       6      24      78       1
       6      24      27      81       1       9      15      18      75       1
      15       9      45      87       1      15       9      36      84       9
      21      27      24      78       1      27      24       6      69       1
      30       3       6      69       1      33      12      36      84      11
      33      12     -36      84       5      36       9      45      87       1
      36       9      15      72       1      39      18      15      72       1
      39      42      48      90       9      39      42      45      87       1
      42      39      18      75      10      45       9      36      84       9
      45       9      15      72       1      45      42      48      90       9
      48      42      45      87       1      48      51      57      93      12
      51      57      60      96      13      51      57      60      99      13
      51      57      63     102      13      51      57      63     105      13
      54      51      48      90      11      54      51     -48      90       5
      54      51      57      93      12      57      51      48      90       5
      57      60     -63     102      13      57      60     -63     105      13
      57      63     -60      96      13      57      63     -60      99      13
      60      57     -63     102      13      60      57     -63     105      13
      60      63     -57      93      13      63      57     -60      96      13
      63      57     -60      99      13      63      60     -57      93      13
      66      21      27      81       1      69       6      24      78       1
      72      15      18      75       1      78      24      27      81       1
      93      57      60      96      13      93      57      60      99      13
      93      57      63     102      13      93      57      63     105      13
      96      60      63     102      13      96      60      63     105      13
      99      60      63     102      13      99      60      63     105      13
       3      24      -6     -69      14       9      18     -15     -72      14
      15      75     -18     -39      14       6      27     -24     -78      14
      21      24     -27     -81      14      12       9     -36     -84      14
       9      42     -45     -87      14      51      42     -48     -90      14
%FLAG DIHEDRALS_WITHOUT_HYDROGEN                                                
%FORMAT(10I8)                                                                   
       0      21      27      24       1       0       3      -6      24       1
       0      12      36       9       2       0      12     -36       9       3
       0      12     -36       9       4       3       0      21      27       1
       3       0      21      66       1       3       0      12      36       6
       3       0      12      33       7       3       6     -24      27       1
      21       0       3       6       1      12       0       3       6       1
       6      24     -27      21       1       9      45      42      39       1
       9      45      42      48       1       9      36      12      33       5
       9      15     -18      39       1      12       0      21      27       1
      12       0      21      66       1      12       0       3      30       1
      12      36       9      45       8      12      36       9      15       8
      15       9      45      42       1      15      18     -39      42      10
      18      15       9      45       1      18      15       9      36       1
      18      39      42      48      10      18      39     -42      45      10
      21       0       3      30       1      21       0      12      36       6
      21       0      12      33       7      24       6       3      30       1
      24      27      21      66       1      36       9      45      42       1
      39      42      48      51       9      42      48      51      57       5
      42      48      51      54       5      45      42      48      51       8
      48      51      57      60      12      48      51      57      63      12
      51      57     -60      63      13      51      57     -63      60      13
      54      51      57      60      12      54      51      57      63      12
      21       0      -3     -12      14       0       6      -3     -30      14
      15      45      -9     -36      14       0      36     -12     -33      15
       0      27     -21     -66      14      45      39     -42     -48      14
      57      48     -51     -54      15
%FLAG EXCLUDED_ATOMS_LIST                                                       
%FORMAT(10I8)                                                                   
       2       3       4       5       8       9      10      11      12      13
      23      24      28      29       3       5       8       9      10      11
      12      13      23      24      27       5       8       9      10      11
      24      27      28       5       6       7      12      13      14      15
      16      17      25      26      29      30       6       8      10      11
      12      13      16      23      29       7      13      14      15      16
      25      26      29      30      13      14      15      16      17      25
      26       9      10      11      12      13      23      27      28      10
      11      23      24      27      28      23      24      27      28      24
      13      29      15      16      25      29      30      15      16      17
      18      25      26      30      31      16      17      18      19      20
      26      30      31      17      18      25      29      30      31      18
      19      20      21      22      30      31      32      19      20      21
      22      31      32      33      34      35      36      20      21      22
      31      32      21      22      31      32      33      34      35      36
      22      32      33      34      35      36      32      33      34      35
      36      28      27      26       0      28       0       0       0       0
      33      34      35      36      34      35      36      35      36      36
       0
%FLAG HBOND_ACOEF                                                               
%FORMAT(5E16.8)                                                                 

%FLAG HBOND_BCOEF                                                               
%FORMAT(5E16.8)                                                                 

%FLAG HBCUT                                                                     
%FORMAT(5E16.8)                                                                 

%FLAG AMBER_ATOM_TYPE                                                           
%FORMAT(20a4)                                                                   
ca  ca  ca  ca  c   ca  ca  ca  ca  ca  cl  o   ns  nb  ca  ca  ns  c   o   cx  
cx  cx  cl  ha  ha  h4  ha  ha  hn  ha  hn  hc  hc  hc  hc  hc  
%FLAG TREE_CHAIN_CLASSIFICATION                                                 
%FORMAT(20a4)                                                                   
BLA BLA BLA BLA BLA BLA BLA BLA BLA BLA BLA BLA BLA BLA BLA BLA BLA BLA BLA BLA 
BLA BLA BLA BLA BLA BLA BLA BLA BLA BLA BLA BLA BLA BLA BLA BLA 
%FLAG JOIN_ARRAY                                                                
%FORMAT(10I8)                                                                   
       0       0       0       0       0       0       0       0       0       0
       0       0       0       0       0       0       0       0       0       0
       0       0       0       0       0       0       0       0       0       0
       0       0       0       0       0       0
%FLAG IROTAT                                                                    
%FORMAT(10I8)                                                                   
       0       0       0       0       0       0       0       0       0       0
       0       0       0       0       0       0       0       0       0       0
       0       0       0       0       0       0       0       0       0       0
       0       0       0       0       0       0
%FLAG RADIUS_SET                                                                
%FORMAT(1a80)                                                                   
modified Bondi radii (mbondi)                                                   
%FLAG RADII                                                                     
%FORMAT(5E16.8)                                                                 
  1.70000000E+00  1.70000000E+00  1.70000000E+00  1.70000000E+00  1.70000000E+00
  1.70000000E+00  1.70000000E+00  1.70000000E+00  1.70000000E+00  1.70000000E+00
  1.70000000E+00  1.50000000E+00  1.55000000E+00  1.55000000E+00  1.70000000E+00
  1.70000000E+00  1.55000000E+00  1.70000000E+00  1.50000000E+00  1.70000000E+00
  1.70000000E+00  1.70000000E+00  1.70000000E+00  1.30000000E+00  1.30000000E+00
  1.30000000E+00  1.30000000E+00  1.30000000E+00  1.30000000E+00  1.30000000E+00
  1.30000000E+00  1.30000000E+00  1.30000000E+00  1.30000000E+00  1.30000000E+00
  1.30000000E+00
%FLAG SCREEN                                                                    
%FORMAT(5E16.8)                                                                 
  7.20000000E-01  7.20000000E-01  7.20000000E-01  7.20000000E-01  7.20000000E-01
  7.20000000E-01  7.20000000E-01  7.20000000E-01  7.20000000E-01  7.20000000E-01
  8.00000000E-01  8.50000000E-01  7.90000000E-01  7.90000000E-01  7.20000000E-01
  7.20000000E-01  7.90000000E-01  7.20000000E-01  8.50000000E-01  7.20000000E-01
  7.20000000E-01  7.20000000E-01  8.00000000E-01  8.50000000E-01  8.50000000E-01
  8.50000000E-01  8.50000000E-01  8.50000000E-01  8.50000000E-01  8.50000000E-01
  8.50000000E-01  8.50000000E-01  8.50000000E-01  8.50000000E-01  8.50000000E-01
  8.50000000E-01
%FLAG IPOL                                                                      
%FORMAT(1I8)                                                                    
       0
