


[ moleculetype ]
; Name        nrexcl
ligand_0X5_h  3

[ atoms ]
;   nr       type  resnr residue  atom   cgnr     charge       mass  typeB    chargeB      massB
     1          ca      1     0X     C4      1   -0.143600    12.0100          ca   -0.124600    12.0100
     2          ca      1     0X     C5      2    0.051900    12.0100          ca    0.045900    12.0100
     3          ca      1     0X     C6      3   -0.129000    12.0100          ca   -0.095000    12.0100
     4          ca      1     0X    C11      4    0.126600    12.0100          ca    0.123600    12.0100
     5           c      1     0X     C8      5    0.691700    12.0100           c    0.688700    12.0100
     6          ca      1     0X    C12      6   -0.303300    12.0100          ca   -0.302300    12.0100
     7          ca      1     0X    C13      7    0.444200    12.0100          ca    0.445200    12.0100
     8          ca      1     0X     C3      8    0.051900    12.0100          ca    0.045900    12.0100
     9          ca      1     0X     C1      9   -0.096000    12.0100          ca    0.023000    12.0100
    10          ca      1     0X     C2     10   -0.129000    12.0100          ca   -0.095000    12.0100
    11          cl      1     0X     CL     11   -0.059900    35.4500          cl   -0.045900    35.4500
    12           o      1     0X     O9     12   -0.550100    16.0000           o   -0.546100    16.0000
    13          ns      1     0X    N10     13   -0.460100    14.0100          ns   -0.459100    14.0100
    14          nb      1     0X    N14     14   -0.735000    14.0100          nb   -0.734000    14.0100
    15          ca      1     0X    C15     15    0.550200    12.0100          ca    0.551200    12.0100
    16          ca      1     0X    C16     16   -0.320300    12.0100          ca   -0.318300    12.0100
    17          ns      1     0X    N17     17   -0.547400    14.0100
    18           c      1     0X    C18     18    0.700100    12.0100           c    0.701100    12.0100
    19           o      1     0X    O19     19   -0.593100    16.0000
    20          cx      1     0X    C20     20   -0.229700    12.0100
    21          cx      1     0X    C21     21   -0.103900    12.0100          cx   -0.103400    12.0100
    22          cx      1     0X    C22     22   -0.103900    12.0100          cx   -0.103400    12.0100
    23          cl      1     0X     CL     23   -0.059900    35.4500          cl   -0.045900    35.4500
    24          ha      1     0X      H     24    0.157000     1.0080          ha    0.169500     1.0080
    25          ha      1     0X     H1     25    0.183000     1.0080          ha    0.182000     1.0080
    26          h4      1     0X     H2     26    0.025100     1.0080          h4    0.027100     1.0080
    27          ha      1     0X     H3     27    0.148000     1.0080      DUM_ha    0.000000     1.0080
    28          ha      1     0X     H4     28    0.157000     1.0080          ha    0.169500     1.0080
    29          hn      1     0X     H5     29    0.330500     1.0080      DUM_hn    0.000000     1.0080
    30          ha      1     0X     H6     30    0.178000     1.0080          ha    0.179000     1.0080
    31          hn      1     0X     H7     31    0.333500     1.0080      DUM_hn    0.000000     1.0080
    32          hc      1     0X     H8     32    0.098700     1.0080
    33          hc      1     0X     H9     33    0.084200     1.0080          hc    0.084700     1.0080
    34          hc      1     0X    H10     34    0.084200     1.0080          hc    0.084700     1.0080
    35          hc      1     0X    H11     35    0.084200     1.0080          hc    0.084700     1.0080
    36          hc      1     0X    H12     36    0.084200     1.0080          hc    0.084700     1.0080
    37      DUM_cg      1     0X   DC17     37    0.000000    12.0100          cg    0.221800    12.0100
    38      DUM_n1      1     0X   DN18     38    0.000000    14.0100          n1   -0.331800    14.0100
    39      DUM_hn      1     0X    HV5     39    0.000000     1.0080          hn    0.330500     1.0080
    40      DUM_hn      1     0X    HV6     40    0.000000     1.0080          hn    0.333500     1.0080

[ bonds ]
;  ai    aj funct            c0            c1            c2            c3
     1      2      1       0.139860  296440.000000       0.139860  296440.000000
     1      5      1       0.149070  219940.000000       0.149070  219940.000000
     1      8      1       0.139860  296440.000000       0.139860  296440.000000
     2      3      1       0.139860  296440.000000       0.139860  296440.000000
     2     11      1       0.175720  157300.000000       0.175720  157300.000000
     3      9      1       0.139860  296440.000000       0.139860  296440.000000
     3     24      1       0.108600  301830.000000       0.108600  301830.000000
     4      6      1       0.139860  296440.000000       0.139860  296440.000000
     4     13      1       0.140700  256670.000000       0.140700  256670.000000
     4     16      1       0.139860  296440.000000       0.139860  296440.000000
     5     12      1       0.121900  494210.000000       0.121900  494210.000000
     5     13      1       0.137980  281220.000000       0.137980  281220.000000
     6      7      1       0.139860  296440.000000       0.139860  296440.000000
     6     25      1       0.108600  301830.000000       0.108600  301830.000000
     7     14      1       0.133920  323410.000000       0.133920  323410.000000
     7     26      1       0.108850  298590.000000       0.108850  298590.000000
     8     10      1       0.139860  296440.000000       0.139860  296440.000000
     8     23      1       0.175720  157300.000000       0.175720  157300.000000
     9     10      1       0.139860  296440.000000       0.139860  296440.000000
     9     27      1       0.108600  301830.000000       0.108600  301830.000000
    10     28      1       0.108600  301830.000000       0.108600  301830.000000
    13     29      1       0.101320  396300.000000       0.101320  396300.000000
    14     15      1       0.133920  323410.000000       0.133920  323410.000000
    15     16      1       0.139860  296440.000000       0.139860  296440.000000
    15     17      1       0.140700  256670.000000       0.140700  256670.000000
    16     30      1       0.108600  301830.000000       0.108600  301830.000000
    17     18      1       0.137980  281220.000000       0.137980  281220.000000
    17     31      1       0.101320  396300.000000       0.101320  396300.000000
    18     19      1       0.121900  494210.000000       0.121900  494210.000000
    18     20      1       0.150350  211320.000000       0.150350  211320.000000
    20     21      1       0.150820  208250.000000       0.150820  208250.000000
    20     22      1       0.150820  208250.000000       0.150820  208250.000000
    20     32      1       0.108650  301170.000000       0.108650  301170.000000
    21     22      1       0.150820  208250.000000       0.150820  208250.000000
    21     33      1       0.108650  301170.000000       0.108650  301170.000000
    21     34      1       0.108650  301170.000000       0.108650  301170.000000
    22     35      1       0.108650  301170.000000       0.108650  301170.000000
    22     36      1       0.108650  301170.000000       0.108650  301170.000000
     9     37      1       0.143180  265610.000000       0.143180  265610.000000
    13     39      1       0.101320  396300.000000       0.101320  396300.000000
    37     38      1       0.116430  622600.000000       0.116430  622600.000000
    17     40      1       0.101320  396300.000000       0.101320  396300.000000

[ pairs ]
;  ai    aj funct            c0            c1            c2            c3
     1      4      1
     1      9      1
     1     24      1
     1     28      1
     1     29      1
     2     10      1
     2     12      1
     2     13      1
     2     23      1
     2     27      1
     3     28      1
     4     12      1
     4     14      1
     4     17      1
     4     26      1
     5      3      1
     5      6      1
     5     10      1
     5     11      1
     5     16      1
     5     23      1
     6     15      1
     6     29      1
     6     30      1
     7     13      1
     7     16      1
     7     17      1
     8      3      1
     8     11      1
     8     12      1
     8     13      1
     8     27      1
     9     11      1
     9     23      1
    10     24      1
    11     24      1
    12     29      1
    13     15      1
    13     25      1
    13     30      1
    14     18      1
    14     25      1
    14     30      1
    14     31      1
    15     19      1
    15     20      1
    15     26      1
    16     18      1
    16     25      1
    16     29      1
    16     31      1
    17     21      1
    17     22      1
    17     30      1
    17     32      1
    18     33      1
    18     34      1
    18     35      1
    18     36      1
    19     21      1
    19     22      1
    19     31      1
    19     32      1
    20     31      1
    23     28      1
    24     27      1
    25     26      1
    27     28      1
    32     33      1
    32     34      1
    32     35      1
    32     36      1
    33     35      1
    33     36      1
    34     35      1
    34     36      1
    10     38      1
    16     39      1
    16     40      1
     2     37      1
     1     39      1
     3     38      1
    14     40      1
     6     39      1
    12     39      1
     8     37      1
    37     28      1
    37     24      1
    19     40      1
    20     40      1

[ angles ]
;  ai    aj    ak funct            c0            c1            c2            c3
     1      2      3      1     120.020000     532.790000     120.020000     532.790000 ; C4 C5 C6
     1      2     11      1     119.380000     536.050000     119.380000     536.050000 ; C4 C5 CL1
     1      5     12      1     122.600000     652.370000     122.600000     652.370000 ; C4 C8 O9
     1      5     13      1     115.090000     561.160000     115.090000     561.160000 ; C4 C8 N10
     1      8     10      1     120.020000     532.790000     120.020000     532.790000 ; C4 C3 C2
     1      8     23      1     119.380000     536.050000     119.380000     536.050000 ; C4 C3 CL2
     2      1      5      1     120.330000     514.130000     120.330000     514.130000 ; C5 C4 C8
     2      1      8      1     120.020000     532.790000     120.020000     532.790000 ; C5 C4 C3
     2      3      9      1     120.020000     532.790000     120.020000     532.790000 ; C5 C6 C1
     2      3     24      1     119.880000     375.720000     119.880000     375.720000 ; C5 C6 H
     3      2     11      1     119.380000     536.050000     119.380000     536.050000 ; C6 C5 CL1
     3      9     10      1     120.020000     532.790000     120.020000     532.790000 ; C6 C1 C2
     3      9     27      1     119.880000     375.720000     119.880000     375.720000 ; C6 C1 H3
     4      6      7      1     120.020000     532.790000     120.020000     532.790000 ; C11 C12 C13
     4      6     25      1     119.880000     375.720000     119.880000     375.720000 ; C11 C12 H1
     4     13      5      1     127.510000     641.160000     127.510000     641.160000 ; C11 N10 C8
     4     13     29      1     116.040000     474.300000     116.040000     474.300000 ; C11 N10 H5
     4     16     15      1     120.020000     532.790000     120.020000     532.790000 ; C11 C16 C15
     4     16     30      1     119.880000     375.720000     119.880000     375.720000 ; C11 C16 H6
     5      1      8      1     120.330000     514.130000     120.330000     514.130000 ; C8 C4 C3
     5     13     29      1     117.260000     480.070000     117.260000     480.070000 ; C8 N10 H5
     6      4     13      1     120.190000     563.500000     120.190000     563.500000 ; C12 C11 N10
     6      4     16      1     120.020000     532.790000     120.020000     532.790000 ; C12 C11 C16
     6      7     14      1     122.940000     570.450000     122.940000     570.450000 ; C12 C13 N14
     6      7     26      1     120.320000     374.890000     120.320000     374.890000 ; C12 C13 H2
     7      6     25      1     119.880000     375.720000     119.880000     375.720000 ; C13 C12 H1
     7     14     15      1     117.240000     695.800000     117.240000     695.800000 ; C13 N14 C15
     8     10      9      1     120.020000     532.790000     120.020000     532.790000 ; C3 C2 C1
     8     10     28      1     119.880000     375.720000     119.880000     375.720000 ; C3 C2 H4
     9      3     24      1     119.880000     375.720000     119.880000     375.720000 ; C1 C6 H
     9     10     28      1     119.880000     375.720000     119.880000     375.720000 ; C1 C2 H4
    10      8     23      1     119.380000     536.050000     119.380000     536.050000 ; C2 C3 CL2
    10      9     27      1     119.880000     375.720000     119.880000     375.720000 ; C2 C1 H3
    12      5     13      1     123.050000     729.770000     123.050000     729.770000 ; O9 C8 N10
    13      4     16      1     120.190000     563.500000     120.190000     563.500000 ; N10 C11 C16
    14      7     26      1     116.020000     419.240000     116.020000     419.240000 ; N14 C13 H2
    14     15     16      1     122.940000     570.450000     122.940000     570.450000 ; N14 C15 C16
    14     15     17      1     113.280000     628.770000     113.280000     628.770000 ; N14 C15 N17
    15     16     30      1     119.880000     375.720000     119.880000     375.720000 ; C15 C16 H6
    15     17     18      1     127.510000     641.160000     127.510000     641.160000 ; C15 N17 C18
    15     17     31      1     116.040000     474.300000     116.040000     474.300000 ; C15 N17 H7
    16     15     17      1     120.190000     563.500000     120.190000     563.500000 ; C16 C15 N17
    17     18     19      1     123.050000     729.770000     123.050000     729.770000 ; N17 C18 O19
    17     18     20      1     114.450000     559.820000     114.450000     559.820000 ; N17 C18 C20
    18     17     31      1     117.260000     480.070000     117.260000     480.070000 ; C18 N17 H7
    18     20     21      1     117.990000     499.150000     117.990000     499.150000 ; C18 C20 C21
    18     20     22      1     117.990000     499.150000     117.990000     499.150000 ; C18 C20 C22
    18     20     32      1     116.630000     358.150000     116.630000     358.150000 ; C18 C20 H8
    19     18     20      1     122.720000     647.850000     122.720000     647.850000 ; O19 C18 C20
    20     21     22      1      60.000000     698.810000      60.000000     698.810000 ; C20 C21 C22
    20     21     33      1     117.690000     355.560000     117.690000     355.560000 ; C20 C21 H9
    20     21     34      1     117.690000     355.560000     117.690000     355.560000 ; C20 C21 H10
    20     22     21      1      60.000000     698.810000      60.000000     698.810000 ; C20 C22 C21
    20     22     35      1     117.690000     355.560000     117.690000     355.560000 ; C20 C22 H11
    20     22     36      1     117.690000     355.560000     117.690000     355.560000 ; C20 C22 H12
    21     20     22      1      60.000000     698.810000      60.000000     698.810000 ; C21 C20 C22
    21     20     32      1     117.690000     355.560000     117.690000     355.560000 ; C21 C20 H8
    21     22     35      1     117.690000     355.560000     117.690000     355.560000 ; C21 C22 H11
    21     22     36      1     117.690000     355.560000     117.690000     355.560000 ; C21 C22 H12
    22     20     32      1     117.690000     355.560000     117.690000     355.560000 ; C22 C20 H8
    22     21     33      1     117.690000     355.560000     117.690000     355.560000 ; C22 C21 H9
    22     21     34      1     117.690000     355.560000     117.690000     355.560000 ; C22 C21 H10
    33     21     34      1     114.430000     293.300000     114.430000     293.300000 ; H9 C21 H10
    35     22     36      1     114.430000     293.300000     114.430000     293.300000 ; H11 C22 H12
    15     17     40      1     116.040000     474.300000     116.040000     474.300000 ; C15 N17 HV6
    10      9     37      1     120.250000     525.930000     120.250000     525.930000 ; C2 C1 DC17
     4     13     39      1     116.040000     474.300000     116.040000     474.300000 ; C11 N10 HV5
     5     13     39      1     117.260000     480.070000     117.260000     480.070000 ; C8 N10 HV5
     3      9     37      1     120.250000     525.930000     120.250000     525.930000 ; C6 C1 DC17
     9     37     38      1     179.520000     487.850000     179.520000     487.850000 ; C1 DC17 DN18
    18     17     40      1     117.260000     480.070000     117.260000     480.070000 ; C18 N17 HV6

[ dihedrals ]
;  ai    aj    ak    al funct            c0            c1            c2            c3            c4            c5
     1      2      3      9    9 180 15.167 2 180 0 2 ; C4 C5 C6 C1     (AAAA->AAAA)
     1      2      3     24    9 180 15.167 2 180 0 2 ; C4 C5 C6 H     (AAAA->AAAA)
     1      5     13      4    9 0 3.3472 3 0 0 3 ; C4 C8 N10 C11     (AAAA->AAAA)
     1      5     13      4    9 180 4.184 1 180 0 1 ; C4 C8 N10 C11     (AAAA->AAAA)
     1      5     13      4    9 180 4.72792 2 180 0 2 ; C4 C8 N10 C11     (AAAA->AAAA)
     1      5     13     29    9 180 10.46 2 180 0 2 ; C4 C8 N10 H5     (AAAA->AAAD)
     1      5     13     29    9 180 0 2 180 10.46 2 ; C4 C8 N10 H5     (AAAA->AAAD)
     1      8     10      9    9 180 15.167 2 180 0 2 ; C4 C3 C2 C1     (AAAA->AAAA)
     1      8     10     28    9 180 15.167 2 180 0 2 ; C4 C3 C2 H4     (AAAA->AAAA)
     2      1      5     12    9 180 2.42672 2 180 0 2 ; C5 C4 C8 O9     (AAAA->AAAA)
     2      1      5     13    9 180 8.88054 2 180 0 2 ; C5 C4 C8 N10     (AAAA->AAAA)
     2      1      8     10    9 180 15.167 2 180 0 2 ; C5 C4 C3 C2     (AAAA->AAAA)
     2      1      8     23    9 180 15.167 2 180 0 2 ; C5 C4 C3 CL     (AAAA->AAAA)
     2      3      9     10    9 180 15.167 2 180 0 2 ; C5 C6 C1 C2     (AAAA->AAAA)
     2      3      9     27    9 180 15.167 2 180 0 2 ; C5 C6 C1 H3     (AAAA->AAAD)
     2      3      9     27    9 180 0 2 180 15.167 2 ; C5 C6 C1 H3     (AAAA->AAAD)
     3      9     10      8    9 180 15.167 2 180 0 2 ; C6 C1 C2 C3     (AAAA->AAAA)
     3      9     10     28    9 180 15.167 2 180 0 2 ; C6 C1 C2 H4     (AAAA->AAAA)
     4      6      7     14    9 180 15.167 2 180 0 2 ; C11 C12 C13 N14     (AAAA->AAAA)
     4      6      7     26    9 180 15.167 2 180 0 2 ; C11 C12 C13 H2     (AAAA->AAAA)
     4     13      5     12    9 180 10.46 2 180 0 2 ; C11 N10 C8 O9     (AAAA->AAAA)
     4     16     15     14    9 180 15.167 2 180 0 2 ; C11 C16 C15 N14     (AAAA->AAAA)
     4     16     15     17    9 180 15.167 2 180 0 2 ; C11 C16 C15 N17     (AAAA->AAAA)
     5      1      2      3    9 180 15.167 2 180 0 2 ; C8 C4 C5 C6     (AAAA->AAAA)
     5      1      2     11    9 180 15.167 2 180 0 2 ; C8 C4 C5 CL     (AAAA->AAAA)
     5      1      8     10    9 180 15.167 2 180 0 2 ; C8 C4 C3 C2     (AAAA->AAAA)
     5      1      8     23    9 180 15.167 2 180 0 2 ; C8 C4 C3 CL     (AAAA->AAAA)
     5     13      4      6    9 180 5.89944 2 180 0 2 ; C8 N10 C11 C12     (AAAA->AAAA)
     5     13      4     16    9 180 5.89944 2 180 0 2 ; C8 N10 C11 C16     (AAAA->AAAA)
     6      4     13     29    9 180 1.8828 2 180 0 2 ; C12 C11 N10 H5     (AAAA->AAAD)
     6      4     13     29    9 180 0 2 180 1.8828 2 ; C12 C11 N10 H5     (AAAA->AAAD)
     6      4     16     15    9 180 15.167 2 180 0 2 ; C12 C11 C16 C15     (AAAA->AAAA)
     6      4     16     30    9 180 15.167 2 180 0 2 ; C12 C11 C16 H6     (AAAA->AAAA)
     6      7     14     15    9 180 20.0832 2 180 0 2 ; C12 C13 N14 C15     (AAAA->AAAA)
     7      6      4     13    9 180 15.167 2 180 0 2 ; C13 C12 C11 N10     (AAAA->AAAA)
     7      6      4     16    9 180 15.167 2 180 0 2 ; C13 C12 C11 C16     (AAAA->AAAA)
     7     14     15     16    9 180 20.0832 2 180 0 2 ; C13 N14 C15 C16     (AAAA->AAAA)
     7     14     15     17    9 180 20.0832 2 180 0 2 ; C13 N14 C15 N17     (AAAA->AAAA)
     8      1      2      3    9 180 15.167 2 180 0 2 ; C3 C4 C5 C6     (AAAA->AAAA)
     8      1      2     11    9 180 15.167 2 180 0 2 ; C3 C4 C5 CL     (AAAA->AAAA)
     8      1      5     12    9 180 2.42672 2 180 0 2 ; C3 C4 C8 O9     (AAAA->AAAA)
     8      1      5     13    9 180 8.88054 2 180 0 2 ; C3 C4 C8 N10     (AAAA->AAAA)
     8     10      9     27    9 180 15.167 2 180 0 2 ; C3 C2 C1 H3     (AAAA->AAAD)
     8     10      9     27    9 180 0 2 180 15.167 2 ; C3 C2 C1 H3     (AAAA->AAAD)
     9      3      2     11    9 180 15.167 2 180 0 2 ; C1 C6 C5 CL     (AAAA->AAAA)
     9     10      8     23    9 180 15.167 2 180 0 2 ; C1 C2 C3 CL     (AAAA->AAAA)
    10      9      3     24    9 180 15.167 2 180 0 2 ; C2 C1 C6 H     (AAAA->AAAA)
    11      2      3     24    9 180 15.167 2 180 0 2 ; CL C5 C6 H     (AAAA->AAAA)
    12      5     13     29    9 0 8.368 1 0 0 1 ; O9 C8 N10 H5     (AAAA->AAAD)
    12      5     13     29    9 0 0 1 0 8.368 1 ; O9 C8 N10 H5     (AAAA->AAAD)
    12      5     13     29    9 180 10.46 2 180 0 2 ; O9 C8 N10 H5     (AAAA->AAAD)
    12      5     13     29    9 180 0 2 180 10.46 2 ; O9 C8 N10 H5     (AAAA->AAAD)
    13      4      6     25    9 180 15.167 2 180 0 2 ; N10 C11 C12 H1     (AAAA->AAAA)
    13      4     16     15    9 180 15.167 2 180 0 2 ; N10 C11 C16 C15     (AAAA->AAAA)
    13      4     16     30    9 180 15.167 2 180 0 2 ; N10 C11 C16 H6     (AAAA->AAAA)
    14      7      6     25    9 180 15.167 2 180 0 2 ; N14 C13 C12 H1     (AAAA->AAAA)
    14     15     16     30    9 180 15.167 2 180 0 2 ; N14 C15 C16 H6     (AAAA->AAAA)
    14     15     17     18    9 180 1.8828 2 180 0 2 ; N14 C15 N17 C18     (AAAA->AAAA)
    14     15     17     31    9 180 1.8828 2 180 0 2 ; N14 C15 N17 H7     (AAAA->AAAD)
    14     15     17     31    9 180 0 2 180 1.8828 2 ; N14 C15 N17 H7     (AAAA->AAAD)
    15     14      7     26    9 180 20.0832 2 180 0 2 ; C15 N14 C13 H2     (AAAA->AAAA)
    15     17     18     19    9 180 10.46 2 180 0 2 ; C15 N17 C18 O19     (AAAA->AAAA)
    15     17     18     20    9 180 10.46 2 180 0 2 ; C15 N17 C18 C20     (AAAA->AAAA)
    16      4      6     25    9 180 15.167 2 180 0 2 ; C16 C11 C12 H1     (AAAA->AAAA)
    16      4     13     29    9 180 1.8828 2 180 0 2 ; C16 C11 N10 H5     (AAAA->AAAD)
    16      4     13     29    9 180 0 2 180 1.8828 2 ; C16 C11 N10 H5     (AAAA->AAAD)
    16     15     17     18    9 180 5.89944 2 180 0 2 ; C16 C15 N17 C18     (AAAA->AAAA)
    16     15     17     31    9 180 1.8828 2 180 0 2 ; C16 C15 N17 H7     (AAAA->AAAD)
    16     15     17     31    9 180 0 2 180 1.8828 2 ; C16 C15 N17 H7     (AAAA->AAAD)
    17     15     16     30    9 180 15.167 2 180 0 2 ; N17 C15 C16 H6     (AAAA->AAAA)
    17     18     20     21    9 180 0 2 180 0 2 ; N17 C18 C20 C21     (AAAA->AAAA)
    17     18     20     22    9 180 0 2 180 0 2 ; N17 C18 C20 C22     (AAAA->AAAA)
    17     18     20     32    9 180 0 2 180 0 2 ; N17 C18 C20 H8     (AAAA->AAAA)
    18     20     21     22    9 0 0.65084 3 0 0 3 ; C18 C20 C21 C22     (AAAA->AAAA)
    18     20     21     33    9 0 0.65084 3 0 0 3 ; C18 C20 C21 H9     (AAAA->AAAA)
    18     20     21     34    9 0 0.65084 3 0 0 3 ; C18 C20 C21 H10     (AAAA->AAAA)
    18     20     22     21    9 0 0.65084 3 0 0 3 ; C18 C20 C22 C21     (AAAA->AAAA)
    18     20     22     35    9 0 0.65084 3 0 0 3 ; C18 C20 C22 H11     (AAAA->AAAA)
    18     20     22     36    9 0 0.65084 3 0 0 3 ; C18 C20 C22 H12     (AAAA->AAAA)
    19     18     17     31    9 0 8.368 1 0 0 1 ; O19 C18 N17 H7     (AAAA->AAAD)
    19     18     17     31    9 0 0 1 0 8.368 1 ; O19 C18 N17 H7     (AAAA->AAAD)
    19     18     17     31    9 180 10.46 2 180 0 2 ; O19 C18 N17 H7     (AAAA->AAAD)
    19     18     17     31    9 180 0 2 180 10.46 2 ; O19 C18 N17 H7     (AAAA->AAAD)
    19     18     20     21    9 180 0 2 180 0 2 ; O19 C18 C20 C21     (AAAA->AAAA)
    19     18     20     22    9 180 0 2 180 0 2 ; O19 C18 C20 C22     (AAAA->AAAA)
    19     18     20     32    9 180 0 2 180 0 2 ; O19 C18 C20 H8     (AAAA->AAAA)
    20     18     17     31    9 180 10.46 2 180 0 2 ; C20 C18 N17 H7     (AAAA->AAAD)
    20     18     17     31    9 180 0 2 180 10.46 2 ; C20 C18 N17 H7     (AAAA->AAAD)
    20     21     22     35    9 0 0.65084 3 0 0 3 ; C20 C21 C22 H11     (AAAA->AAAA)
    20     21     22     36    9 0 0.65084 3 0 0 3 ; C20 C21 C22 H12     (AAAA->AAAA)
    20     22     21     33    9 0 0.65084 3 0 0 3 ; C20 C22 C21 H9     (AAAA->AAAA)
    20     22     21     34    9 0 0.65084 3 0 0 3 ; C20 C22 C21 H10     (AAAA->AAAA)
    21     20     22     35    9 0 0.65084 3 0 0 3 ; C21 C20 C22 H11     (AAAA->AAAA)
    21     20     22     36    9 0 0.65084 3 0 0 3 ; C21 C20 C22 H12     (AAAA->AAAA)
    21     22     20     32    9 0 0.65084 3 0 0 3 ; C21 C22 C20 H8     (AAAA->AAAA)
    22     20     21     33    9 0 0.65084 3 0 0 3 ; C22 C20 C21 H9     (AAAA->AAAA)
    22     20     21     34    9 0 0.65084 3 0 0 3 ; C22 C20 C21 H10     (AAAA->AAAA)
    22     21     20     32    9 0 0.65084 3 0 0 3 ; C22 C21 C20 H8     (AAAA->AAAA)
    23      8     10     28    9 180 15.167 2 180 0 2 ; CL C3 C2 H4     (AAAA->AAAA)
    24      3      9     27    9 180 15.167 2 180 0 2 ; H C6 C1 H3     (AAAA->AAAD)
    24      3      9     27    9 180 0 2 180 15.167 2 ; H C6 C1 H3     (AAAA->AAAD)
    25      6      7     26    9 180 15.167 2 180 0 2 ; H1 C12 C13 H2     (AAAA->AAAA)
    27      9     10     28    9 180 15.167 2 180 0 2 ; H3 C1 C2 H4     (AAAA->DAAA)
    27      9     10     28    9 180 0 2 180 15.167 2 ; H3 C1 C2 H4     (AAAA->DAAA)
    32     20     21     33    9 0 0.65084 3 0 0 3 ; H8 C20 C21 H9     (AAAA->AAAA)
    32     20     21     34    9 0 0.65084 3 0 0 3 ; H8 C20 C21 H10     (AAAA->AAAA)
    32     20     22     35    9 0 0.65084 3 0 0 3 ; H8 C20 C22 H11     (AAAA->AAAA)
    32     20     22     36    9 0 0.65084 3 0 0 3 ; H8 C20 C22 H12     (AAAA->AAAA)
    33     21     22     35    9 0 0.65084 3 0 0 3 ; H9 C21 C22 H11     (AAAA->AAAA)
    33     21     22     36    9 0 0.65084 3 0 0 3 ; H9 C21 C22 H12     (AAAA->AAAA)
    34     21     22     35    9 0 0.65084 3 0 0 3 ; H10 C21 C22 H11     (AAAA->AAAA)
    34     21     22     36    9 0 0.65084 3 0 0 3 ; H10 C21 C22 H12     (AAAA->AAAA)
     1      3      2     11    4 180 4.6024 2 180 0 2 ; C4 C6 C5 CL     (AAAA->AAAA)
     1     10      8     23    4 180 4.6024 2 180 0 2 ; C4 C2 C3 CL     (AAAA->AAAA)
     1     13      5     12    4 180 43.932 2 180 0 2 ; C4 N10 C8 O9     (AAAA->AAAA)
     2      9      3     24    4 180 4.6024 2 180 0 2 ; C5 C1 C6 H     (AAAA->AAAA)
     3     10      9     27    4 180 4.6024 2 180 0 2 ; C6 C2 C1 H3     (AAAA->AAAD)
     3     10      9     27    4 180 0 2 180 0 2 ; C6 C2 C1 H3     (AAAA->AAAD)
     4      7      6     25    4 180 4.6024 2 180 0 2 ; C11 C13 C12 H1     (AAAA->AAAA)
     4     15     16     30    4 180 4.6024 2 180 0 2 ; C11 C15 C16 H6     (AAAA->AAAA)
     5      4     13     29    4 180 4.6024 2 180 0 2 ; C8 C11 N10 H5     (AAAA->AAAD)
     5      4     13     29    4 180 0 2 180 0 2 ; C8 C11 N10 H5     (AAAA->AAAD)
     6     16      4     13    4 180 4.6024 2 180 0 2 ; C12 C16 C11 N10     (AAAA->AAAA)
     6     26      7     14    4 180 4.6024 2 180 0 2 ; C12 H2 C13 N14     (AAAA->AAAA)
     8      1      2      5    4 180 4.6024 2 180 0 2 ; C3 C4 C5 C8     (AAAA->AAAA)
     8      9     10     28    4 180 4.6024 2 180 0 2 ; C3 C1 C2 H4     (AAAA->AAAA)
    16     14     15     17    4 180 4.6024 2 180 0 2 ; C16 N14 C15 N17     (AAAA->AAAA)
    18     15     17     31    4 180 4.6024 2 180 0 2 ; C18 C15 N17 H7     (AAAA->AAAD)
    18     15     17     31    4 180 0 2 180 0 2 ; C18 C15 N17 H7     (AAAA->AAAD)
    20     17     18     19    4 180 43.932 2 180 0 2 ; C20 N17 C18 O19     (AAAA->AAAA)
    15     16      4      6    9 180 0 2 180 15.167 2 ; C15 C16 C11 C12     (AAAA->AAAA)
    15     16      4     13    9 180 0 2 180 15.167 2 ; C15 C16 C11 N10     (AAAA->AAAA)
    15     14      7      6    9 180 0 2 180 20.0832 2 ; C15 N14 C13 C12     (AAAA->AAAA)
    15     14      7     26    9 180 0 2 180 20.0832 2 ; C15 N14 C13 H2     (AAAA->AAAA)
    15     17     18     19    9 180 0 2 180 10.46 2 ; C15 N17 C18 O19     (AAAA->AAAA)
    15     17     18     20    9 180 0 2 180 10.46 2 ; C15 N17 C18 C20     (AAAA->AAAA)
    10      9      3      2    9 180 0 2 180 15.167 2 ; C2 C1 C6 C5     (AAAA->AAAA)
    10      9      3     24    9 180 0 2 180 15.167 2 ; C2 C1 C6 H     (AAAA->AAAA)
    10      9     37     38    9 180 0 2 180 0 2 ; C2 C1 DC17 DN18     (AADD->AAAA)
    10      9     37     38    9 180 0 2 180 0 2 ; C2 C1 DC17 DN18     (AADD->AAAA)
    10      8      1      2    9 180 0 2 180 15.167 2 ; C2 C3 C4 C5     (AAAA->AAAA)
    10      8      1      5    9 180 0 2 180 15.167 2 ; C2 C3 C4 C8     (AAAA->AAAA)
    16     15     14      7    9 180 0 2 180 20.0832 2 ; C16 C15 N14 C13     (AAAA->AAAA)
    16     15     17     18    9 180 0 2 180 5.89944 2 ; C16 C15 N17 C18     (AAAA->AAAA)
    16     15     17     40    9 180 0 2 180 1.8828 2 ; C16 C15 N17 HV6     (AAAD->AAAA)
    16     15     17     40    9 180 1.8828 2 180 0 2 ; C16 C15 N17 HV6     (AAAD->AAAA)
    16      4      6      7    9 180 0 2 180 15.167 2 ; C16 C11 C12 C13     (AAAA->AAAA)
    16      4      6     25    9 180 0 2 180 15.167 2 ; C16 C11 C12 H1     (AAAA->AAAA)
    16      4     13      5    9 180 0 2 180 5.89944 2 ; C16 C11 N10 C8     (AAAA->AAAA)
    16      4     13     39    9 180 0 2 180 1.8828 2 ; C16 C11 N10 HV5     (AAAD->AAAA)
    16      4     13     39    9 180 1.8828 2 180 0 2 ; C16 C11 N10 HV5     (AAAD->AAAA)
     4      6      7     14    9 180 0 2 180 15.167 2 ; C11 C12 C13 N14     (AAAA->AAAA)
     4      6      7     26    9 180 0 2 180 15.167 2 ; C11 C12 C13 H2     (AAAA->AAAA)
     4     13      5      1    9 0 0 3 0 3.3472 3 ; C11 N10 C8 C4     (AAAA->AAAA)
     4     13      5      1    9 180 0 1 180 4.184 1 ; C11 N10 C8 C4     (AAAA->AAAA)
     4     13      5      1    9 180 0 2 180 4.72792 2 ; C11 N10 C8 C4     (AAAA->AAAA)
     4     13      5     12    9 180 0 2 180 10.46 2 ; C11 N10 C8 O9     (AAAA->AAAA)
     2      1      5     13    9 180 0 2 180 8.88054 2 ; C5 C4 C8 N10     (AAAA->AAAA)
     2      1      5     12    9 180 0 2 180 2.42672 2 ; C5 C4 C8 O9     (AAAA->AAAA)
     2      1      8     23    9 180 0 2 180 15.167 2 ; C5 C4 C3 CL     (AAAA->AAAA)
     2      3      9     37    9 180 0 2 180 15.167 2 ; C5 C6 C1 DC17     (AAAD->AAAA)
     2      3      9     37    9 180 15.167 2 180 0 2 ; C5 C6 C1 DC17     (AAAD->AAAA)
     5      1      2      3    9 180 0 2 180 15.167 2 ; C8 C4 C5 C6     (AAAA->AAAA)
     5      1      2     11    9 180 0 2 180 15.167 2 ; C8 C4 C5 CL     (AAAA->AAAA)
     5      1      8     23    9 180 0 2 180 15.167 2 ; C8 C4 C3 CL     (AAAA->AAAA)
     5     13      4      6    9 180 0 2 180 5.89944 2 ; C8 N10 C11 C12     (AAAA->AAAA)
     1      2      3      9    9 180 0 2 180 15.167 2 ; C4 C5 C6 C1     (AAAA->AAAA)
     1      2      3     24    9 180 0 2 180 15.167 2 ; C4 C5 C6 H     (AAAA->AAAA)
     1      5     13     39    9 180 0 2 180 10.46 2 ; C4 C8 N10 HV5     (AAAD->AAAA)
     1      5     13     39    9 180 10.46 2 180 0 2 ; C4 C8 N10 HV5     (AAAD->AAAA)
     1      8     10      9    9 180 0 2 180 15.167 2 ; C4 C3 C2 C1     (AAAA->AAAA)
     1      8     10     28    9 180 0 2 180 15.167 2 ; C4 C3 C2 H4     (AAAA->AAAA)
     3      2      1      8    9 180 0 2 180 15.167 2 ; C6 C5 C4 C3     (AAAA->AAAA)
     3      9     10      8    9 180 0 2 180 15.167 2 ; C6 C1 C2 C3     (AAAA->AAAA)
     3      9     10     28    9 180 0 2 180 15.167 2 ; C6 C1 C2 H4     (AAAA->AAAA)
     3      9     37     38    9 180 0 2 180 0 2 ; C6 C1 DC17 DN18     (AADD->AAAA)
     3      9     37     38    9 180 0 2 180 0 2 ; C6 C1 DC17 DN18     (AADD->AAAA)
     9     10      8     23    9 180 0 2 180 15.167 2 ; C1 C2 C3 CL     (AAAA->AAAA)
     9      3      2     11    9 180 0 2 180 15.167 2 ; C1 C6 C5 CL     (AAAA->AAAA)
    14     15     16      4    9 180 0 2 180 15.167 2 ; N14 C15 C16 C11     (AAAA->AAAA)
    14     15     16     30    9 180 0 2 180 15.167 2 ; N14 C15 C16 H6     (AAAA->AAAA)
    14     15     17     18    9 180 0 2 180 1.8828 2 ; N14 C15 N17 C18     (AAAA->AAAA)
    14     15     17     40    9 180 0 2 180 1.8828 2 ; N14 C15 N17 HV6     (AAAD->AAAA)
    14     15     17     40    9 180 1.8828 2 180 0 2 ; N14 C15 N17 HV6     (AAAD->AAAA)
    14      7      6     25    9 180 0 2 180 15.167 2 ; N14 C13 C12 H1     (AAAA->AAAA)
     6      4     16     30    9 180 0 2 180 15.167 2 ; C12 C11 C16 H6     (AAAA->AAAA)
     6      4     13     39    9 180 0 2 180 1.8828 2 ; C12 C11 N10 HV5     (AAAD->AAAA)
     6      4     13     39    9 180 1.8828 2 180 0 2 ; C12 C11 N10 HV5     (AAAD->AAAA)
     7      6      4     13    9 180 0 2 180 15.167 2 ; C13 C12 C11 N10     (AAAA->AAAA)
    13      4     16     30    9 180 0 2 180 15.167 2 ; N10 C11 C16 H6     (AAAA->AAAA)
    13      4      6     25    9 180 0 2 180 15.167 2 ; N10 C11 C12 H1     (AAAA->AAAA)
    13      5      1      8    9 180 0 2 180 8.88054 2 ; N10 C8 C4 C3     (AAAA->AAAA)
    12      5      1      8    9 180 0 2 180 2.42672 2 ; O9 C8 C4 C3     (AAAA->AAAA)
    12      5     13     39    9 0 0 1 0 8.368 1 ; O9 C8 N10 HV5     (AAAD->AAAA)
    12      5     13     39    9 0 8.368 1 0 0 1 ; O9 C8 N10 HV5     (AAAD->AAAA)
    12      5     13     39    9 180 0 2 180 10.46 2 ; O9 C8 N10 HV5     (AAAD->AAAA)
    12      5     13     39    9 180 10.46 2 180 0 2 ; O9 C8 N10 HV5     (AAAD->AAAA)
     8     10      9     37    9 180 0 2 180 15.167 2 ; C3 C2 C1 DC17     (AAAD->AAAA)
     8     10      9     37    9 180 15.167 2 180 0 2 ; C3 C2 C1 DC17     (AAAD->AAAA)
     8      1      2     11    9 180 0 2 180 15.167 2 ; C3 C4 C5 CL     (AAAA->AAAA)
    23      8     10     28    9 180 0 2 180 15.167 2 ; CL C3 C2 H4     (AAAA->AAAA)
    37      9     10     28    9 180 0 2 180 15.167 2 ; DC17 C1 C2 H4     (DAAA->AAAA)
    37      9     10     28    9 180 15.167 2 180 0 2 ; DC17 C1 C2 H4     (DAAA->AAAA)
    37      9      3     24    9 180 0 2 180 15.167 2 ; DC17 C1 C6 H     (DAAA->AAAA)
    37      9      3     24    9 180 15.167 2 180 0 2 ; DC17 C1 C6 H     (DAAA->AAAA)
    11      2      3     24    9 180 0 2 180 15.167 2 ; CL C5 C6 H     (AAAA->AAAA)
    17     15     16      4    9 180 0 2 180 15.167 2 ; N17 C15 C16 C11     (AAAA->AAAA)
    17     15     16     30    9 180 0 2 180 15.167 2 ; N17 C15 C16 H6     (AAAA->AAAA)
    17     15     14      7    9 180 0 2 180 20.0832 2 ; N17 C15 N14 C13     (AAAA->AAAA)
    17     18     20     21    9 180 0 2 180 0 2 ; N17 C18 C20 C21     (AAAA->AAAA)
    17     18     20     22    9 180 0 2 180 0 2 ; N17 C18 C20 C22     (AAAA->AAAA)
    17     18     20     32    9 180 0 2 180 0 2 ; N17 C18 C20 H8     (AAAA->AAAA)
    18     20     21     22    9 0 0 3 0 0.65084 3 ; C18 C20 C21 C22     (AAAA->AAAA)
    18     20     21     33    9 0 0 3 0 0.65084 3 ; C18 C20 C21 H9     (AAAA->AAAA)
    18     20     21     34    9 0 0 3 0 0.65084 3 ; C18 C20 C21 H10     (AAAA->AAAA)
    18     20     22     21    9 0 0 3 0 0.65084 3 ; C18 C20 C22 C21     (AAAA->AAAA)
    18     20     22     35    9 0 0 3 0 0.65084 3 ; C18 C20 C22 H11     (AAAA->AAAA)
    18     20     22     36    9 0 0 3 0 0.65084 3 ; C18 C20 C22 H12     (AAAA->AAAA)
    19     18     17     40    9 0 0 1 0 8.368 1 ; O19 C18 N17 HV6     (AAAD->AAAA)
    19     18     17     40    9 0 8.368 1 0 0 1 ; O19 C18 N17 HV6     (AAAD->AAAA)
    19     18     17     40    9 180 0 2 180 10.46 2 ; O19 C18 N17 HV6     (AAAD->AAAA)
    19     18     17     40    9 180 10.46 2 180 0 2 ; O19 C18 N17 HV6     (AAAD->AAAA)
    19     18     20     21    9 180 0 2 180 0 2 ; O19 C18 C20 C21     (AAAA->AAAA)
    19     18     20     22    9 180 0 2 180 0 2 ; O19 C18 C20 C22     (AAAA->AAAA)
    19     18     20     32    9 180 0 2 180 0 2 ; O19 C18 C20 H8     (AAAA->AAAA)
    20     18     17     40    9 180 0 2 180 10.46 2 ; C20 C18 N17 HV6     (AAAD->AAAA)
    20     18     17     40    9 180 10.46 2 180 0 2 ; C20 C18 N17 HV6     (AAAD->AAAA)
    20     21     22     35    9 0 0 3 0 0.65084 3 ; C20 C21 C22 H11     (AAAA->AAAA)
    20     21     22     36    9 0 0 3 0 0.65084 3 ; C20 C21 C22 H12     (AAAA->AAAA)
    20     22     21     33    9 0 0 3 0 0.65084 3 ; C20 C22 C21 H9     (AAAA->AAAA)
    20     22     21     34    9 0 0 3 0 0.65084 3 ; C20 C22 C21 H10     (AAAA->AAAA)
    21     20     22     35    9 0 0 3 0 0.65084 3 ; C21 C20 C22 H11     (AAAA->AAAA)
    21     20     22     36    9 0 0 3 0 0.65084 3 ; C21 C20 C22 H12     (AAAA->AAAA)
    21     22     20     32    9 0 0 3 0 0.65084 3 ; C21 C22 C20 H8     (AAAA->AAAA)
    22     20     21     33    9 0 0 3 0 0.65084 3 ; C22 C20 C21 H9     (AAAA->AAAA)
    22     20     21     34    9 0 0 3 0 0.65084 3 ; C22 C20 C21 H10     (AAAA->AAAA)
    22     21     20     32    9 0 0 3 0 0.65084 3 ; C22 C21 C20 H8     (AAAA->AAAA)
    25      6      7     26    9 180 0 2 180 15.167 2 ; H1 C12 C13 H2     (AAAA->AAAA)
    32     20     21     33    9 0 0 3 0 0.65084 3 ; H8 C20 C21 H9     (AAAA->AAAA)
    32     20     21     34    9 0 0 3 0 0.65084 3 ; H8 C20 C21 H10     (AAAA->AAAA)
    32     20     22     35    9 0 0 3 0 0.65084 3 ; H8 C20 C22 H11     (AAAA->AAAA)
    32     20     22     36    9 0 0 3 0 0.65084 3 ; H8 C20 C22 H12     (AAAA->AAAA)
    33     21     22     35    9 0 0 3 0 0.65084 3 ; H9 C21 C22 H11     (AAAA->AAAA)
    33     21     22     36    9 0 0 3 0 0.65084 3 ; H9 C21 C22 H12     (AAAA->AAAA)
    34     21     22     35    9 0 0 3 0 0.65084 3 ; H10 C21 C22 H11     (AAAA->AAAA)
    34     21     22     36    9 0 0 3 0 0.65084 3 ; H10 C21 C22 H12     (AAAA->AAAA)
    15      4     16     30    4 180 0 2 180 4.6024 2 ; C15 C11 C16 H6     (AAAA->AAAA)
    10      1      8     23    4 180 0 2 180 4.6024 2 ; C2 C4 C3 CL     (AAAA->AAAA)
    10      3      9     37    4 180 0 2 180 4.6024 2 ; C2 C6 C1 DC17     (AAAD->AAAA)
    10      3      9     37    4 180 0 2 180 0 2 ; C2 C6 C1 DC17     (AAAD->AAAA)
    16      6      4     13    4 180 0 2 180 4.6024 2 ; C16 C12 C11 N10     (AAAA->AAAA)
     4      7      6     25    4 180 0 2 180 4.6024 2 ; C11 C13 C12 H1     (AAAA->AAAA)
     2      9      3     24    4 180 0 2 180 4.6024 2 ; C5 C1 C6 H     (AAAA->AAAA)
     5      4     13     39    4 180 0 2 180 4.6024 2 ; C8 C11 N10 HV5     (AAAD->AAAA)
     5      4     13     39    4 180 0 2 180 0 2 ; C8 C11 N10 HV5     (AAAD->AAAA)
     5      2      1      8    4 180 0 2 180 4.6024 2 ; C8 C5 C4 C3     (AAAA->AAAA)
     1      3      2     11    4 180 0 2 180 4.6024 2 ; C4 C6 C5 CL     (AAAA->AAAA)
     1     13      5     12    4 180 0 2 180 43.932 2 ; C4 N10 C8 O9     (AAAA->AAAA)
     9      8     10     28    4 180 0 2 180 4.6024 2 ; C1 C3 C2 H4     (AAAA->AAAA)
     6     26      7     14    4 180 0 2 180 4.6024 2 ; C12 H2 C13 N14     (AAAA->AAAA)
    17     15     14     16    4 180 0 2 180 4.6024 2 ; N17 C15 N14 C16     (AAAA->AAAA)
    18     15     17     40    4 180 0 2 180 4.6024 2 ; C18 C15 N17 HV6     (AAAD->AAAA)
    18     15     17     40    4 180 0 2 180 0 2 ; C18 C15 N17 HV6     (AAAD->AAAA)
    20     17     18     19    4 180 0 2 180 43.932 2 ; C20 N17 C18 O19     (AAAA->AAAA)


