; ligand_0X6_h_GMX.itp created by acpype (v: 2023.10.27) on Tue Dec 16 17:11:02 2025

[ atomtypes ]
;name   bond_type     mass     charge   ptype   sigma         epsilon       Amb
 ca       ca          0.00000  0.00000   A     3.31521e-01   4.13379e-01 ; 1.86  0.0988
 c        c           0.00000  0.00000   A     3.31521e-01   4.13379e-01 ; 1.86  0.0988
 nb       nb          0.00000  0.00000   A     3.38417e-01   3.93714e-01 ; 1.90  0.0941
 ns       ns          0.00000  0.00000   A     3.26995e-01   4.91202e-01 ; 1.84  0.1174
 o        o           0.00000  0.00000   A     3.04812e-01   6.12119e-01 ; 1.71  0.1463
 cl       cl          0.00000  0.00000   A     3.46595e-01   1.10374e+00 ; 1.95  0.2638
 cg       cg          0.00000  0.00000   A     3.47896e-01   6.67766e-01 ; 1.95  0.1596
 n1       n1          0.00000  0.00000   A     3.27352e-01   4.59403e-01 ; 1.84  0.1098
 cx       cx          0.00000  0.00000   A     3.39771e-01   4.51035e-01 ; 1.91  0.1078
 ha       ha          0.00000  0.00000   A     2.62548e-01   6.73624e-02 ; 1.47  0.0161
 h4       h4          0.00000  0.00000   A     2.53639e-01   6.73624e-02 ; 1.42  0.0161
 hn       hn          0.00000  0.00000   A     1.10650e-01   4.18400e-02 ; 0.62  0.0100
 hc       hc          0.00000  0.00000   A     2.60018e-01   8.70272e-02 ; 1.46  0.0208

[ moleculetype ]
;name            nrexcl
 ligand_0X6_h     3

[ atoms ]
;   nr  type  resi  res  atom  cgnr     charge      mass       ; qtot   bond_type
     1   ca     1   0X6    C4    1     0.551200     12.01000 ; qtot 0.551
     2   ca     1   0X6   C14    2    -0.095000     12.01000 ; qtot 0.456
     3   ca     1   0X6    C5    3    -0.318300     12.01000 ; qtot 0.138
     4   ca     1   0X6    C6    4     0.123600     12.01000 ; qtot 0.262
     5   ca     1   0X6   C11    5     0.045900     12.01000 ; qtot 0.307
     6    c     1   0X6    C8    6     0.688700     12.01000 ; qtot 0.996
     7   ca     1   0X6   C10    7    -0.124600     12.01000 ; qtot 0.872
     8   ca     1   0X6   C12    8    -0.095000     12.01000 ; qtot 0.777
     9   ca     1   0X6   C13    9     0.023000     12.01000 ; qtot 0.800
    10   nb     1   0X6    N3   10    -0.734000     14.01000 ; qtot 0.065
    11   ca     1   0X6    C1   11    -0.302300     12.01000 ; qtot -0.237
    12   ca     1   0X6    C2   12     0.445200     12.01000 ; qtot 0.208
    13   ns     1   0X6    N7   13    -0.459100     14.01000 ; qtot -0.251
    14    o     1   0X6    O9   14    -0.546100     16.00000 ; qtot -0.797
    15   ca     1   0X6   C15   15     0.045900     12.01000 ; qtot -0.751
    16   cl     1   0X6   CL1   16    -0.045900     35.45000 ; qtot -0.797
    17   cg     1   0X6   C17   17     0.221800     12.01000 ; qtot -0.575
    18   n1     1   0X6   N18   18    -0.331800     14.01000 ; qtot -0.907
    19   cl     1   0X6   CL2   19    -0.045900     35.45000 ; qtot -0.953
    20   ns     1   0X6   N20   20    -0.547400     14.01000 ; qtot -1.500
    21    c     1   0X6   C21   21     0.701100     12.01000 ; qtot -0.799
    22    o     1   0X6   O22   22    -0.593100     16.00000 ; qtot -1.392
    23   cx     1   0X6   C23   23    -0.229700     12.01000 ; qtot -1.622
    24   cx     1   0X6   C24   24    -0.103400     12.01000 ; qtot -1.725
    25   cx     1   0X6   C25   25    -0.103400     12.01000 ; qtot -1.829
    26   ha     1   0X6     H   26     0.169500      1.00800 ; qtot -1.659
    27   ha     1   0X6    H1   27     0.179000      1.00800 ; qtot -1.480
    28   ha     1   0X6    H2   28     0.169500      1.00800 ; qtot -1.311
    29   ha     1   0X6    H3   29     0.182000      1.00800 ; qtot -1.129
    30   h4     1   0X6    H4   30     0.027100      1.00800 ; qtot -1.102
    31   hn     1   0X6    H5   31     0.330500      1.00800 ; qtot -0.771
    32   hn     1   0X6    H6   32     0.333500      1.00800 ; qtot -0.438
    33   hc     1   0X6    H7   33     0.098700      1.00800 ; qtot -0.339
    34   hc     1   0X6    H8   34     0.084700      1.00800 ; qtot -0.254
    35   hc     1   0X6    H9   35     0.084700      1.00800 ; qtot -0.169
    36   hc     1   0X6   H10   36     0.084700      1.00800 ; qtot -0.085
    37   hc     1   0X6   H11   37     0.084700      1.00800 ; qtot -0.000

[ bonds ]
;   ai     aj funct   r             k
     1      3   1    1.3986e-01    2.9644e+05 ;     C4 - C5    
     1     10   1    1.3392e-01    3.2341e+05 ;     C4 - N3    
     1     20   1    1.4070e-01    2.5667e+05 ;     C4 - N20   
     2      9   1    1.3986e-01    2.9644e+05 ;    C14 - C13   
     2     15   1    1.3986e-01    2.9644e+05 ;    C14 - C15   
     2     26   1    1.0860e-01    3.0183e+05 ;    C14 - H     
     3      4   1    1.3986e-01    2.9644e+05 ;     C5 - C6    
     3     27   1    1.0860e-01    3.0183e+05 ;     C5 - H1    
     4     11   1    1.3986e-01    2.9644e+05 ;     C6 - C1    
     4     13   1    1.4070e-01    2.5667e+05 ;     C6 - N7    
     5      7   1    1.3986e-01    2.9644e+05 ;    C11 - C10   
     5      8   1    1.3986e-01    2.9644e+05 ;    C11 - C12   
     5     19   1    1.7572e-01    1.5730e+05 ;    C11 - CL2   
     6      7   1    1.4907e-01    2.1994e+05 ;     C8 - C10   
     6     13   1    1.3798e-01    2.8122e+05 ;     C8 - N7    
     6     14   1    1.2190e-01    4.9421e+05 ;     C8 - O9    
     7     15   1    1.3986e-01    2.9644e+05 ;    C10 - C15   
     8      9   1    1.3986e-01    2.9644e+05 ;    C12 - C13   
     8     28   1    1.0860e-01    3.0183e+05 ;    C12 - H2    
     9     17   1    1.4318e-01    2.6561e+05 ;    C13 - C17   
    10     12   1    1.3392e-01    3.2341e+05 ;     N3 - C2    
    11     12   1    1.3986e-01    2.9644e+05 ;     C1 - C2    
    11     29   1    1.0860e-01    3.0183e+05 ;     C1 - H3    
    12     30   1    1.0885e-01    2.9859e+05 ;     C2 - H4    
    13     31   1    1.0132e-01    3.9630e+05 ;     N7 - H5    
    15     16   1    1.7572e-01    1.5730e+05 ;    C15 - CL1   
    17     18   1    1.1643e-01    6.2260e+05 ;    C17 - N18   
    20     21   1    1.3798e-01    2.8122e+05 ;    N20 - C21   
    20     32   1    1.0132e-01    3.9630e+05 ;    N20 - H6    
    21     22   1    1.2190e-01    4.9421e+05 ;    C21 - O22   
    21     23   1    1.5035e-01    2.1132e+05 ;    C21 - C23   
    23     24   1    1.5082e-01    2.0825e+05 ;    C23 - C24   
    23     25   1    1.5082e-01    2.0825e+05 ;    C23 - C25   
    23     33   1    1.0865e-01    3.0117e+05 ;    C23 - H7    
    24     25   1    1.5082e-01    2.0825e+05 ;    C24 - C25   
    24     34   1    1.0865e-01    3.0117e+05 ;    C24 - H8    
    24     35   1    1.0865e-01    3.0117e+05 ;    C24 - H9    
    25     36   1    1.0865e-01    3.0117e+05 ;    C25 - H10   
    25     37   1    1.0865e-01    3.0117e+05 ;    C25 - H11   

[ pairs ]
;   ai     aj    funct
     1     11      1 ;     C4 - C1    
     1     13      1 ;     C4 - N7    
     1     22      1 ;     C4 - O22   
     1     23      1 ;     C4 - C23   
     1     30      1 ;     C4 - H4    
     2      5      1 ;    C14 - C11   
     2      6      1 ;    C14 - C8    
     2     18      1 ;    C14 - N18   
     2     28      1 ;    C14 - H2    
     3      6      1 ;     C5 - C8    
     3     12      1 ;     C5 - C2    
     3     21      1 ;     C5 - C21   
     3     29      1 ;     C5 - H3    
     3     31      1 ;     C5 - H5    
     3     32      1 ;     C5 - H6    
     4      7      1 ;     C6 - C10   
     4     14      1 ;     C6 - O9    
     4     30      1 ;     C6 - H4    
     5     13      1 ;    C11 - N7    
     5     14      1 ;    C11 - O9    
     5     16      1 ;    C11 - CL1   
     5     17      1 ;    C11 - C17   
     6      8      1 ;     C8 - C12   
     6     11      1 ;     C8 - C1    
     6     16      1 ;     C8 - CL1   
     6     19      1 ;     C8 - CL2   
     7      9      1 ;    C10 - C13   
     7     26      1 ;    C10 - H     
     7     28      1 ;    C10 - H2    
     7     31      1 ;    C10 - H5    
     8     15      1 ;    C12 - C15   
     8     18      1 ;    C12 - N18   
     8     26      1 ;    C12 - H     
     9     16      1 ;    C13 - CL1   
     9     19      1 ;    C13 - CL2   
    10      4      1 ;     N3 - C6    
    10     21      1 ;     N3 - C21   
    10     27      1 ;     N3 - H1    
    10     29      1 ;     N3 - H3    
    10     32      1 ;     N3 - H6    
    11     27      1 ;     C1 - H1    
    11     31      1 ;     C1 - H5    
    12     13      1 ;     C2 - N7    
    13     15      1 ;     N7 - C15   
    13     27      1 ;     N7 - H1    
    13     29      1 ;     N7 - H3    
    14     15      1 ;     O9 - C15   
    14     31      1 ;     O9 - H5    
    15     17      1 ;    C15 - C17   
    15     19      1 ;    C15 - CL2   
    16     26      1 ;    CL1 - H     
    17     26      1 ;    C17 - H     
    17     28      1 ;    C17 - H2    
    19     28      1 ;    CL2 - H2    
    20      4      1 ;    N20 - C6    
    20     12      1 ;    N20 - C2    
    20     24      1 ;    N20 - C24   
    20     25      1 ;    N20 - C25   
    20     27      1 ;    N20 - H1    
    20     33      1 ;    N20 - H7    
    21     34      1 ;    C21 - H8    
    21     35      1 ;    C21 - H9    
    21     36      1 ;    C21 - H10   
    21     37      1 ;    C21 - H11   
    22     24      1 ;    O22 - C24   
    22     25      1 ;    O22 - C25   
    22     32      1 ;    O22 - H6    
    22     33      1 ;    O22 - H7    
    23     32      1 ;    C23 - H6    
    29     30      1 ;     H3 - H4    
    33     34      1 ;     H7 - H8    
    33     35      1 ;     H7 - H9    
    33     36      1 ;     H7 - H10   
    33     37      1 ;     H7 - H11   
    34     36      1 ;     H8 - H10   
    34     37      1 ;     H8 - H11   
    35     36      1 ;     H9 - H10   
    35     37      1 ;     H9 - H11   

[ angles ]
;   ai     aj     ak    funct   theta         cth
     1      3      4      1    1.2002e+02    5.3279e+02 ;     C4 - C5     - C6    
     1      3     27      1    1.1988e+02    3.7572e+02 ;     C4 - C5     - H1    
     1     10     12      1    1.1724e+02    6.9580e+02 ;     C4 - N3     - C2    
     1     20     21      1    1.2751e+02    6.4116e+02 ;     C4 - N20    - C21   
     1     20     32      1    1.1604e+02    4.7430e+02 ;     C4 - N20    - H6    
     2      9      8      1    1.2002e+02    5.3279e+02 ;    C14 - C13    - C12   
     2      9     17      1    1.2025e+02    5.2593e+02 ;    C14 - C13    - C17   
     2     15      7      1    1.2002e+02    5.3279e+02 ;    C14 - C15    - C10   
     2     15     16      1    1.1938e+02    5.3605e+02 ;    C14 - C15    - CL1   
     3      1     10      1    1.2294e+02    5.7045e+02 ;     C5 - C4     - N3    
     3      1     20      1    1.2019e+02    5.6350e+02 ;     C5 - C4     - N20   
     3      4     11      1    1.2002e+02    5.3279e+02 ;     C5 - C6     - C1    
     3      4     13      1    1.2019e+02    5.6350e+02 ;     C5 - C6     - N7    
     4      3     27      1    1.1988e+02    3.7572e+02 ;     C6 - C5     - H1    
     4     11     12      1    1.2002e+02    5.3279e+02 ;     C6 - C1     - C2    
     4     11     29      1    1.1988e+02    3.7572e+02 ;     C6 - C1     - H3    
     4     13      6      1    1.2751e+02    6.4116e+02 ;     C6 - N7     - C8    
     4     13     31      1    1.1604e+02    4.7430e+02 ;     C6 - N7     - H5    
     5      7      6      1    1.2033e+02    5.1413e+02 ;    C11 - C10    - C8    
     5      7     15      1    1.2002e+02    5.3279e+02 ;    C11 - C10    - C15   
     5      8      9      1    1.2002e+02    5.3279e+02 ;    C11 - C12    - C13   
     5      8     28      1    1.1988e+02    3.7572e+02 ;    C11 - C12    - H2    
     6      7     15      1    1.2033e+02    5.1413e+02 ;     C8 - C10    - C15   
     6     13     31      1    1.1726e+02    4.8007e+02 ;     C8 - N7     - H5    
     7      5      8      1    1.2002e+02    5.3279e+02 ;    C10 - C11    - C12   
     7      5     19      1    1.1938e+02    5.3605e+02 ;    C10 - C11    - CL2   
     7      6     13      1    1.1509e+02    5.6116e+02 ;    C10 - C8     - N7    
     7      6     14      1    1.2260e+02    6.5237e+02 ;    C10 - C8     - O9    
     7     15     16      1    1.1938e+02    5.3605e+02 ;    C10 - C15    - CL1   
     8      5     19      1    1.1938e+02    5.3605e+02 ;    C12 - C11    - CL2   
     8      9     17      1    1.2025e+02    5.2593e+02 ;    C12 - C13    - C17   
     9      2     15      1    1.2002e+02    5.3279e+02 ;    C13 - C14    - C15   
     9      2     26      1    1.1988e+02    3.7572e+02 ;    C13 - C14    - H     
     9      8     28      1    1.1988e+02    3.7572e+02 ;    C13 - C12    - H2    
     9     17     18      1    1.7952e+02    4.8785e+02 ;    C13 - C17    - N18   
    10      1     20      1    1.1328e+02    6.2877e+02 ;     N3 - C4     - N20   
    10     12     11      1    1.2294e+02    5.7045e+02 ;     N3 - C2     - C1    
    10     12     30      1    1.1602e+02    4.1924e+02 ;     N3 - C2     - H4    
    11      4     13      1    1.2019e+02    5.6350e+02 ;     C1 - C6     - N7    
    11     12     30      1    1.2032e+02    3.7489e+02 ;     C1 - C2     - H4    
    12     11     29      1    1.1988e+02    3.7572e+02 ;     C2 - C1     - H3    
    13      6     14      1    1.2305e+02    7.2977e+02 ;     N7 - C8     - O9    
    15      2     26      1    1.1988e+02    3.7572e+02 ;    C15 - C14    - H     
    20     21     22      1    1.2305e+02    7.2977e+02 ;    N20 - C21    - O22   
    20     21     23      1    1.1445e+02    5.5982e+02 ;    N20 - C21    - C23   
    21     20     32      1    1.1726e+02    4.8007e+02 ;    C21 - N20    - H6    
    21     23     24      1    1.1799e+02    4.9915e+02 ;    C21 - C23    - C24   
    21     23     25      1    1.1799e+02    4.9915e+02 ;    C21 - C23    - C25   
    21     23     33      1    1.1663e+02    3.5815e+02 ;    C21 - C23    - H7    
    22     21     23      1    1.2272e+02    6.4785e+02 ;    O22 - C21    - C23   
    23     24     25      1    6.0000e+01    6.9881e+02 ;    C23 - C24    - C25   
    23     24     34      1    1.1769e+02    3.5556e+02 ;    C23 - C24    - H8    
    23     24     35      1    1.1769e+02    3.5556e+02 ;    C23 - C24    - H9    
    23     25     24      1    6.0000e+01    6.9881e+02 ;    C23 - C25    - C24   
    23     25     36      1    1.1769e+02    3.5556e+02 ;    C23 - C25    - H10   
    23     25     37      1    1.1769e+02    3.5556e+02 ;    C23 - C25    - H11   
    24     23     25      1    6.0000e+01    6.9881e+02 ;    C24 - C23    - C25   
    24     23     33      1    1.1769e+02    3.5556e+02 ;    C24 - C23    - H7    
    24     25     36      1    1.1769e+02    3.5556e+02 ;    C24 - C25    - H10   
    24     25     37      1    1.1769e+02    3.5556e+02 ;    C24 - C25    - H11   
    25     23     33      1    1.1769e+02    3.5556e+02 ;    C25 - C23    - H7    
    25     24     34      1    1.1769e+02    3.5556e+02 ;    C25 - C24    - H8    
    25     24     35      1    1.1769e+02    3.5556e+02 ;    C25 - C24    - H9    
    34     24     35      1    1.1443e+02    2.9330e+02 ;     H8 - C24    - H9    
    36     25     37      1    1.1443e+02    2.9330e+02 ;    H10 - C25    - H11   

[ dihedrals ] ; propers
; for gromacs 4.5 or higher, using funct 9
;    i      j      k      l   func   phase     kd      pn
     1      3      4     11      9   180.00  15.16700   2 ;     C4-    C5-    C6-    C1
     1      3      4     13      9   180.00  15.16700   2 ;     C4-    C5-    C6-    N7
     1     10     12     11      9   180.00  20.08320   2 ;     C4-    N3-    C2-    C1
     1     10     12     30      9   180.00  20.08320   2 ;     C4-    N3-    C2-    H4
     1     20     21     22      9   180.00  10.46000   2 ;     C4-   N20-   C21-   O22
     1     20     21     23      9   180.00  10.46000   2 ;     C4-   N20-   C21-   C23
     2      9      8      5      9   180.00  15.16700   2 ;    C14-   C13-   C12-   C11
     2      9      8     28      9   180.00  15.16700   2 ;    C14-   C13-   C12-    H2
     2      9     17     18      9   180.00   0.00000   2 ;    C14-   C13-   C17-   N18
     2     15      7      5      9   180.00  15.16700   2 ;    C14-   C15-   C10-   C11
     2     15      7      6      9   180.00  15.16700   2 ;    C14-   C15-   C10-    C8
     3      1     10     12      9   180.00  20.08320   2 ;     C5-    C4-    N3-    C2
     3      1     20     21      9   180.00   5.89944   2 ;     C5-    C4-   N20-   C21
     3      1     20     32      9   180.00   1.88280   2 ;     C5-    C4-   N20-    H6
     3      4     11     12      9   180.00  15.16700   2 ;     C5-    C6-    C1-    C2
     3      4     11     29      9   180.00  15.16700   2 ;     C5-    C6-    C1-    H3
     3      4     13      6      9   180.00   5.89944   2 ;     C5-    C6-    N7-    C8
     3      4     13     31      9   180.00   1.88280   2 ;     C5-    C6-    N7-    H5
     4     11     12     10      9   180.00  15.16700   2 ;     C6-    C1-    C2-    N3
     4     11     12     30      9   180.00  15.16700   2 ;     C6-    C1-    C2-    H4
     4     13      6      7      9     0.00   3.34720   3 ;     C6-    N7-    C8-   C10
     4     13      6      7      9   180.00   4.18400   1 ;     C6-    N7-    C8-   C10
     4     13      6      7      9   180.00   4.72792   2 ;     C6-    N7-    C8-   C10
     4     13      6     14      9   180.00  10.46000   2 ;     C6-    N7-    C8-    O9
     5      7      6     13      9   180.00   8.88054   2 ;    C11-   C10-    C8-    N7
     5      7      6     14      9   180.00   2.42672   2 ;    C11-   C10-    C8-    O9
     5      7     15     16      9   180.00  15.16700   2 ;    C11-   C10-   C15-   CL1
     5      8      9     17      9   180.00  15.16700   2 ;    C11-   C12-   C13-   C17
     6      7      5      8      9   180.00  15.16700   2 ;     C8-   C10-   C11-   C12
     6      7      5     19      9   180.00  15.16700   2 ;     C8-   C10-   C11-   CL2
     6      7     15     16      9   180.00  15.16700   2 ;     C8-   C10-   C15-   CL1
     6     13      4     11      9   180.00   5.89944   2 ;     C8-    N7-    C6-    C1
     7      5      8      9      9   180.00  15.16700   2 ;    C10-   C11-   C12-   C13
     7      5      8     28      9   180.00  15.16700   2 ;    C10-   C11-   C12-    H2
     7      6     13     31      9   180.00  10.46000   2 ;    C10-    C8-    N7-    H5
     7     15      2      9      9   180.00  15.16700   2 ;    C10-   C15-   C14-   C13
     7     15      2     26      9   180.00  15.16700   2 ;    C10-   C15-   C14-     H
     8      5      7     15      9   180.00  15.16700   2 ;    C12-   C11-   C10-   C15
     8      9      2     15      9   180.00  15.16700   2 ;    C12-   C13-   C14-   C15
     8      9      2     26      9   180.00  15.16700   2 ;    C12-   C13-   C14-     H
     8      9     17     18      9   180.00   0.00000   2 ;    C12-   C13-   C17-   N18
     9      2     15     16      9   180.00  15.16700   2 ;    C13-   C14-   C15-   CL1
     9      8      5     19      9   180.00  15.16700   2 ;    C13-   C12-   C11-   CL2
    10      1      3      4      9   180.00  15.16700   2 ;     N3-    C4-    C5-    C6
    10      1      3     27      9   180.00  15.16700   2 ;     N3-    C4-    C5-    H1
    10      1     20     21      9   180.00   1.88280   2 ;     N3-    C4-   N20-   C21
    10      1     20     32      9   180.00   1.88280   2 ;     N3-    C4-   N20-    H6
    10     12     11     29      9   180.00  15.16700   2 ;     N3-    C2-    C1-    H3
    11      4      3     27      9   180.00  15.16700   2 ;     C1-    C6-    C5-    H1
    11      4     13     31      9   180.00   1.88280   2 ;     C1-    C6-    N7-    H5
    12     11      4     13      9   180.00  15.16700   2 ;     C2-    C1-    C6-    N7
    13      4      3     27      9   180.00  15.16700   2 ;     N7-    C6-    C5-    H1
    13      4     11     29      9   180.00  15.16700   2 ;     N7-    C6-    C1-    H3
    13      6      7     15      9   180.00   8.88054   2 ;     N7-    C8-   C10-   C15
    14      6      7     15      9   180.00   2.42672   2 ;     O9-    C8-   C10-   C15
    14      6     13     31      9     0.00   8.36800   1 ;     O9-    C8-    N7-    H5
    14      6     13     31      9   180.00  10.46000   2 ;     O9-    C8-    N7-    H5
    15      2      9     17      9   180.00  15.16700   2 ;    C15-   C14-   C13-   C17
    15      7      5     19      9   180.00  15.16700   2 ;    C15-   C10-   C11-   CL2
    16     15      2     26      9   180.00  15.16700   2 ;    CL1-   C15-   C14-     H
    17      9      2     26      9   180.00  15.16700   2 ;    C17-   C13-   C14-     H
    17      9      8     28      9   180.00  15.16700   2 ;    C17-   C13-   C12-    H2
    19      5      8     28      9   180.00  15.16700   2 ;    CL2-   C11-   C12-    H2
    20      1      3      4      9   180.00  15.16700   2 ;    N20-    C4-    C5-    C6
    20      1      3     27      9   180.00  15.16700   2 ;    N20-    C4-    C5-    H1
    20      1     10     12      9   180.00  20.08320   2 ;    N20-    C4-    N3-    C2
    20     21     23     24      9   180.00   0.00000   2 ;    N20-   C21-   C23-   C24
    20     21     23     25      9   180.00   0.00000   2 ;    N20-   C21-   C23-   C25
    20     21     23     33      9   180.00   0.00000   2 ;    N20-   C21-   C23-    H7
    21     23     24     25      9     0.00   0.65084   3 ;    C21-   C23-   C24-   C25
    21     23     24     34      9     0.00   0.65084   3 ;    C21-   C23-   C24-    H8
    21     23     24     35      9     0.00   0.65084   3 ;    C21-   C23-   C24-    H9
    21     23     25     24      9     0.00   0.65084   3 ;    C21-   C23-   C25-   C24
    21     23     25     36      9     0.00   0.65084   3 ;    C21-   C23-   C25-   H10
    21     23     25     37      9     0.00   0.65084   3 ;    C21-   C23-   C25-   H11
    22     21     20     32      9     0.00   8.36800   1 ;    O22-   C21-   N20-    H6
    22     21     20     32      9   180.00  10.46000   2 ;    O22-   C21-   N20-    H6
    22     21     23     24      9   180.00   0.00000   2 ;    O22-   C21-   C23-   C24
    22     21     23     25      9   180.00   0.00000   2 ;    O22-   C21-   C23-   C25
    22     21     23     33      9   180.00   0.00000   2 ;    O22-   C21-   C23-    H7
    23     21     20     32      9   180.00  10.46000   2 ;    C23-   C21-   N20-    H6
    23     24     25     36      9     0.00   0.65084   3 ;    C23-   C24-   C25-   H10
    23     24     25     37      9     0.00   0.65084   3 ;    C23-   C24-   C25-   H11
    23     25     24     34      9     0.00   0.65084   3 ;    C23-   C25-   C24-    H8
    23     25     24     35      9     0.00   0.65084   3 ;    C23-   C25-   C24-    H9
    24     23     25     36      9     0.00   0.65084   3 ;    C24-   C23-   C25-   H10
    24     23     25     37      9     0.00   0.65084   3 ;    C24-   C23-   C25-   H11
    24     25     23     33      9     0.00   0.65084   3 ;    C24-   C25-   C23-    H7
    25     23     24     34      9     0.00   0.65084   3 ;    C25-   C23-   C24-    H8
    25     23     24     35      9     0.00   0.65084   3 ;    C25-   C23-   C24-    H9
    25     24     23     33      9     0.00   0.65084   3 ;    C25-   C24-   C23-    H7
    29     11     12     30      9   180.00  15.16700   2 ;     H3-    C1-    C2-    H4
    33     23     24     34      9     0.00   0.65084   3 ;     H7-   C23-   C24-    H8
    33     23     24     35      9     0.00   0.65084   3 ;     H7-   C23-   C24-    H9
    33     23     25     36      9     0.00   0.65084   3 ;     H7-   C23-   C25-   H10
    33     23     25     37      9     0.00   0.65084   3 ;     H7-   C23-   C25-   H11
    34     24     25     36      9     0.00   0.65084   3 ;     H8-   C24-   C25-   H10
    34     24     25     37      9     0.00   0.65084   3 ;     H8-   C24-   C25-   H11
    35     24     25     36      9     0.00   0.65084   3 ;     H9-   C24-   C25-   H10
    35     24     25     37      9     0.00   0.65084   3 ;     H9-   C24-   C25-   H11

[ dihedrals ] ; impropers
; treated as propers in GROMACS to use correct AMBER analytical function
;    i      j      k      l   func   phase     kd      pn
     1      4      3     27      4   180.00   4.60240   2 ;     C4-    C6-    C5-    H1
     2      7     15     16      4   180.00   4.60240   2 ;    C14-   C10-   C15-   CL1
     2      8      9     17      4   180.00   4.60240   2 ;    C14-   C12-   C13-   C17
     3     11      4     13      4   180.00   4.60240   2 ;     C5-    C1-    C6-    N7
     4     12     11     29      4   180.00   4.60240   2 ;     C6-    C2-    C1-    H3
     5      9      8     28      4   180.00   4.60240   2 ;    C11-   C13-   C12-    H2
     6      4     13     31      4   180.00   4.60240   2 ;     C8-    C6-    N7-    H5
     6      5      7     15      4   180.00   4.60240   2 ;     C8-   C11-   C10-   C15
     7      8      5     19      4   180.00   4.60240   2 ;    C10-   C12-   C11-   CL2
     7     13      6     14      4   180.00  43.93200   2 ;    C10-    N7-    C8-    O9
     9     15      2     26      4   180.00   4.60240   2 ;    C13-   C15-   C14-     H
    11     30     12     10      4   180.00   4.60240   2 ;     C1-    H4-    C2-    N3
    20      1     10      3      4   180.00   4.60240   2 ;    N20-    C4-    N3-    C5
    21      1     20     32      4   180.00   4.60240   2 ;    C21-    C4-   N20-    H6
    23     20     21     22      4   180.00  43.93200   2 ;    C23-   N20-   C21-   O22
