; ligand_0X5_h_GMX.itp created by acpype (v: 2023.10.27) on Tue Dec 16 17:09:42 2025

[ atomtypes ]
;name   bond_type     mass     charge   ptype   sigma         epsilon       Amb
 ca       ca          0.00000  0.00000   A     3.31521e-01   4.13379e-01 ; 1.86  0.0988
 c        c           0.00000  0.00000   A     3.31521e-01   4.13379e-01 ; 1.86  0.0988
 cl       cl          0.00000  0.00000   A     3.46595e-01   1.10374e+00 ; 1.95  0.2638
 o        o           0.00000  0.00000   A     3.04812e-01   6.12119e-01 ; 1.71  0.1463
 ns       ns          0.00000  0.00000   A     3.26995e-01   4.91202e-01 ; 1.84  0.1174
 nb       nb          0.00000  0.00000   A     3.38417e-01   3.93714e-01 ; 1.90  0.0941
 cx       cx          0.00000  0.00000   A     3.39771e-01   4.51035e-01 ; 1.91  0.1078
 ha       ha          0.00000  0.00000   A     2.62548e-01   6.73624e-02 ; 1.47  0.0161
 h4       h4          0.00000  0.00000   A     2.53639e-01   6.73624e-02 ; 1.42  0.0161
 hn       hn          0.00000  0.00000   A     1.10650e-01   4.18400e-02 ; 0.62  0.0100
 hc       hc          0.00000  0.00000   A     2.60018e-01   8.70272e-02 ; 1.46  0.0208

[ moleculetype ]
;name            nrexcl
 ligand_0X5_h     3

[ atoms ]
;   nr  type  resi  res  atom  cgnr     charge      mass       ; qtot   bond_type
     1   ca     1   0X5    C4    1    -0.143600     12.01000 ; qtot -0.144
     2   ca     1   0X5    C5    2     0.051900     12.01000 ; qtot -0.092
     3   ca     1   0X5    C6    3    -0.129000     12.01000 ; qtot -0.221
     4   ca     1   0X5   C11    4     0.126600     12.01000 ; qtot -0.094
     5    c     1   0X5    C8    5     0.691700     12.01000 ; qtot 0.598
     6   ca     1   0X5   C12    6    -0.303300     12.01000 ; qtot 0.294
     7   ca     1   0X5   C13    7     0.444200     12.01000 ; qtot 0.738
     8   ca     1   0X5    C3    8     0.051900     12.01000 ; qtot 0.790
     9   ca     1   0X5    C1    9    -0.096000     12.01000 ; qtot 0.694
    10   ca     1   0X5    C2   10    -0.129000     12.01000 ; qtot 0.565
    11   cl     1   0X5   CL1   11    -0.059900     35.45000 ; qtot 0.505
    12    o     1   0X5    O9   12    -0.550100     16.00000 ; qtot -0.045
    13   ns     1   0X5   N10   13    -0.460100     14.01000 ; qtot -0.505
    14   nb     1   0X5   N14   14    -0.735000     14.01000 ; qtot -1.240
    15   ca     1   0X5   C15   15     0.550200     12.01000 ; qtot -0.689
    16   ca     1   0X5   C16   16    -0.320300     12.01000 ; qtot -1.010
    17   ns     1   0X5   N17   17    -0.547400     14.01000 ; qtot -1.557
    18    c     1   0X5   C18   18     0.700100     12.01000 ; qtot -0.857
    19    o     1   0X5   O19   19    -0.593100     16.00000 ; qtot -1.450
    20   cx     1   0X5   C20   20    -0.229700     12.01000 ; qtot -1.680
    21   cx     1   0X5   C21   21    -0.103900     12.01000 ; qtot -1.784
    22   cx     1   0X5   C22   22    -0.103900     12.01000 ; qtot -1.888
    23   cl     1   0X5   CL2   23    -0.059900     35.45000 ; qtot -1.948
    24   ha     1   0X5     H   24     0.157000      1.00800 ; qtot -1.791
    25   ha     1   0X5    H1   25     0.183000      1.00800 ; qtot -1.608
    26   h4     1   0X5    H2   26     0.025100      1.00800 ; qtot -1.582
    27   ha     1   0X5    H3   27     0.148000      1.00800 ; qtot -1.434
    28   ha     1   0X5    H4   28     0.157000      1.00800 ; qtot -1.277
    29   hn     1   0X5    H5   29     0.330500      1.00800 ; qtot -0.947
    30   ha     1   0X5    H6   30     0.178000      1.00800 ; qtot -0.769
    31   hn     1   0X5    H7   31     0.333500      1.00800 ; qtot -0.435
    32   hc     1   0X5    H8   32     0.098700      1.00800 ; qtot -0.337
    33   hc     1   0X5    H9   33     0.084200      1.00800 ; qtot -0.253
    34   hc     1   0X5   H10   34     0.084200      1.00800 ; qtot -0.168
    35   hc     1   0X5   H11   35     0.084200      1.00800 ; qtot -0.084
    36   hc     1   0X5   H12   36     0.084200      1.00800 ; qtot 0.000

[ bonds ]
;   ai     aj funct   r             k
     1      2   1    1.3986e-01    2.9644e+05 ;     C4 - C5    
     1      5   1    1.4907e-01    2.1994e+05 ;     C4 - C8    
     1      8   1    1.3986e-01    2.9644e+05 ;     C4 - C3    
     2      3   1    1.3986e-01    2.9644e+05 ;     C5 - C6    
     2     11   1    1.7572e-01    1.5730e+05 ;     C5 - CL1   
     3      9   1    1.3986e-01    2.9644e+05 ;     C6 - C1    
     3     24   1    1.0860e-01    3.0183e+05 ;     C6 - H     
     4      6   1    1.3986e-01    2.9644e+05 ;    C11 - C12   
     4     13   1    1.4070e-01    2.5667e+05 ;    C11 - N10   
     4     16   1    1.3986e-01    2.9644e+05 ;    C11 - C16   
     5     12   1    1.2190e-01    4.9421e+05 ;     C8 - O9    
     5     13   1    1.3798e-01    2.8122e+05 ;     C8 - N10   
     6      7   1    1.3986e-01    2.9644e+05 ;    C12 - C13   
     6     25   1    1.0860e-01    3.0183e+05 ;    C12 - H1    
     7     14   1    1.3392e-01    3.2341e+05 ;    C13 - N14   
     7     26   1    1.0885e-01    2.9859e+05 ;    C13 - H2    
     8     10   1    1.3986e-01    2.9644e+05 ;     C3 - C2    
     8     23   1    1.7572e-01    1.5730e+05 ;     C3 - CL2   
     9     10   1    1.3986e-01    2.9644e+05 ;     C1 - C2    
     9     27   1    1.0860e-01    3.0183e+05 ;     C1 - H3    
    10     28   1    1.0860e-01    3.0183e+05 ;     C2 - H4    
    13     29   1    1.0132e-01    3.9630e+05 ;    N10 - H5    
    14     15   1    1.3392e-01    3.2341e+05 ;    N14 - C15   
    15     16   1    1.3986e-01    2.9644e+05 ;    C15 - C16   
    15     17   1    1.4070e-01    2.5667e+05 ;    C15 - N17   
    16     30   1    1.0860e-01    3.0183e+05 ;    C16 - H6    
    17     18   1    1.3798e-01    2.8122e+05 ;    N17 - C18   
    17     31   1    1.0132e-01    3.9630e+05 ;    N17 - H7    
    18     19   1    1.2190e-01    4.9421e+05 ;    C18 - O19   
    18     20   1    1.5035e-01    2.1132e+05 ;    C18 - C20   
    20     21   1    1.5082e-01    2.0825e+05 ;    C20 - C21   
    20     22   1    1.5082e-01    2.0825e+05 ;    C20 - C22   
    20     32   1    1.0865e-01    3.0117e+05 ;    C20 - H8    
    21     22   1    1.5082e-01    2.0825e+05 ;    C21 - C22   
    21     33   1    1.0865e-01    3.0117e+05 ;    C21 - H9    
    21     34   1    1.0865e-01    3.0117e+05 ;    C21 - H10   
    22     35   1    1.0865e-01    3.0117e+05 ;    C22 - H11   
    22     36   1    1.0865e-01    3.0117e+05 ;    C22 - H12   

[ pairs ]
;   ai     aj    funct
     1      4      1 ;     C4 - C11   
     1      9      1 ;     C4 - C1    
     1     24      1 ;     C4 - H     
     1     28      1 ;     C4 - H4    
     1     29      1 ;     C4 - H5    
     2     10      1 ;     C5 - C2    
     2     12      1 ;     C5 - O9    
     2     13      1 ;     C5 - N10   
     2     23      1 ;     C5 - CL2   
     2     27      1 ;     C5 - H3    
     3     28      1 ;     C6 - H4    
     4     12      1 ;    C11 - O9    
     4     14      1 ;    C11 - N14   
     4     17      1 ;    C11 - N17   
     4     26      1 ;    C11 - H2    
     5      3      1 ;     C8 - C6    
     5      6      1 ;     C8 - C12   
     5     10      1 ;     C8 - C2    
     5     11      1 ;     C8 - CL1   
     5     16      1 ;     C8 - C16   
     5     23      1 ;     C8 - CL2   
     6     15      1 ;    C12 - C15   
     6     29      1 ;    C12 - H5    
     6     30      1 ;    C12 - H6    
     7     13      1 ;    C13 - N10   
     7     16      1 ;    C13 - C16   
     7     17      1 ;    C13 - N17   
     8      3      1 ;     C3 - C6    
     8     11      1 ;     C3 - CL1   
     8     12      1 ;     C3 - O9    
     8     13      1 ;     C3 - N10   
     8     27      1 ;     C3 - H3    
     9     11      1 ;     C1 - CL1   
     9     23      1 ;     C1 - CL2   
    10     24      1 ;     C2 - H     
    11     24      1 ;    CL1 - H     
    12     29      1 ;     O9 - H5    
    13     15      1 ;    N10 - C15   
    13     25      1 ;    N10 - H1    
    13     30      1 ;    N10 - H6    
    14     18      1 ;    N14 - C18   
    14     25      1 ;    N14 - H1    
    14     30      1 ;    N14 - H6    
    14     31      1 ;    N14 - H7    
    15     19      1 ;    C15 - O19   
    15     20      1 ;    C15 - C20   
    15     26      1 ;    C15 - H2    
    16     18      1 ;    C16 - C18   
    16     25      1 ;    C16 - H1    
    16     29      1 ;    C16 - H5    
    16     31      1 ;    C16 - H7    
    17     21      1 ;    N17 - C21   
    17     22      1 ;    N17 - C22   
    17     30      1 ;    N17 - H6    
    17     32      1 ;    N17 - H8    
    18     33      1 ;    C18 - H9    
    18     34      1 ;    C18 - H10   
    18     35      1 ;    C18 - H11   
    18     36      1 ;    C18 - H12   
    19     21      1 ;    O19 - C21   
    19     22      1 ;    O19 - C22   
    19     31      1 ;    O19 - H7    
    19     32      1 ;    O19 - H8    
    20     31      1 ;    C20 - H7    
    23     28      1 ;    CL2 - H4    
    24     27      1 ;      H - H3    
    25     26      1 ;     H1 - H2    
    27     28      1 ;     H3 - H4    
    32     33      1 ;     H8 - H9    
    32     34      1 ;     H8 - H10   
    32     35      1 ;     H8 - H11   
    32     36      1 ;     H8 - H12   
    33     35      1 ;     H9 - H11   
    33     36      1 ;     H9 - H12   
    34     35      1 ;    H10 - H11   
    34     36      1 ;    H10 - H12   

[ angles ]
;   ai     aj     ak    funct   theta         cth
     1      2      3      1    1.2002e+02    5.3279e+02 ;     C4 - C5     - C6    
     1      2     11      1    1.1938e+02    5.3605e+02 ;     C4 - C5     - CL1   
     1      5     12      1    1.2260e+02    6.5237e+02 ;     C4 - C8     - O9    
     1      5     13      1    1.1509e+02    5.6116e+02 ;     C4 - C8     - N10   
     1      8     10      1    1.2002e+02    5.3279e+02 ;     C4 - C3     - C2    
     1      8     23      1    1.1938e+02    5.3605e+02 ;     C4 - C3     - CL2   
     2      1      5      1    1.2033e+02    5.1413e+02 ;     C5 - C4     - C8    
     2      1      8      1    1.2002e+02    5.3279e+02 ;     C5 - C4     - C3    
     2      3      9      1    1.2002e+02    5.3279e+02 ;     C5 - C6     - C1    
     2      3     24      1    1.1988e+02    3.7572e+02 ;     C5 - C6     - H     
     3      2     11      1    1.1938e+02    5.3605e+02 ;     C6 - C5     - CL1   
     3      9     10      1    1.2002e+02    5.3279e+02 ;     C6 - C1     - C2    
     3      9     27      1    1.1988e+02    3.7572e+02 ;     C6 - C1     - H3    
     4      6      7      1    1.2002e+02    5.3279e+02 ;    C11 - C12    - C13   
     4      6     25      1    1.1988e+02    3.7572e+02 ;    C11 - C12    - H1    
     4     13      5      1    1.2751e+02    6.4116e+02 ;    C11 - N10    - C8    
     4     13     29      1    1.1604e+02    4.7430e+02 ;    C11 - N10    - H5    
     4     16     15      1    1.2002e+02    5.3279e+02 ;    C11 - C16    - C15   
     4     16     30      1    1.1988e+02    3.7572e+02 ;    C11 - C16    - H6    
     5      1      8      1    1.2033e+02    5.1413e+02 ;     C8 - C4     - C3    
     5     13     29      1    1.1726e+02    4.8007e+02 ;     C8 - N10    - H5    
     6      4     13      1    1.2019e+02    5.6350e+02 ;    C12 - C11    - N10   
     6      4     16      1    1.2002e+02    5.3279e+02 ;    C12 - C11    - C16   
     6      7     14      1    1.2294e+02    5.7045e+02 ;    C12 - C13    - N14   
     6      7     26      1    1.2032e+02    3.7489e+02 ;    C12 - C13    - H2    
     7      6     25      1    1.1988e+02    3.7572e+02 ;    C13 - C12    - H1    
     7     14     15      1    1.1724e+02    6.9580e+02 ;    C13 - N14    - C15   
     8     10      9      1    1.2002e+02    5.3279e+02 ;     C3 - C2     - C1    
     8     10     28      1    1.1988e+02    3.7572e+02 ;     C3 - C2     - H4    
     9      3     24      1    1.1988e+02    3.7572e+02 ;     C1 - C6     - H     
     9     10     28      1    1.1988e+02    3.7572e+02 ;     C1 - C2     - H4    
    10      8     23      1    1.1938e+02    5.3605e+02 ;     C2 - C3     - CL2   
    10      9     27      1    1.1988e+02    3.7572e+02 ;     C2 - C1     - H3    
    12      5     13      1    1.2305e+02    7.2977e+02 ;     O9 - C8     - N10   
    13      4     16      1    1.2019e+02    5.6350e+02 ;    N10 - C11    - C16   
    14      7     26      1    1.1602e+02    4.1924e+02 ;    N14 - C13    - H2    
    14     15     16      1    1.2294e+02    5.7045e+02 ;    N14 - C15    - C16   
    14     15     17      1    1.1328e+02    6.2877e+02 ;    N14 - C15    - N17   
    15     16     30      1    1.1988e+02    3.7572e+02 ;    C15 - C16    - H6    
    15     17     18      1    1.2751e+02    6.4116e+02 ;    C15 - N17    - C18   
    15     17     31      1    1.1604e+02    4.7430e+02 ;    C15 - N17    - H7    
    16     15     17      1    1.2019e+02    5.6350e+02 ;    C16 - C15    - N17   
    17     18     19      1    1.2305e+02    7.2977e+02 ;    N17 - C18    - O19   
    17     18     20      1    1.1445e+02    5.5982e+02 ;    N17 - C18    - C20   
    18     17     31      1    1.1726e+02    4.8007e+02 ;    C18 - N17    - H7    
    18     20     21      1    1.1799e+02    4.9915e+02 ;    C18 - C20    - C21   
    18     20     22      1    1.1799e+02    4.9915e+02 ;    C18 - C20    - C22   
    18     20     32      1    1.1663e+02    3.5815e+02 ;    C18 - C20    - H8    
    19     18     20      1    1.2272e+02    6.4785e+02 ;    O19 - C18    - C20   
    20     21     22      1    6.0000e+01    6.9881e+02 ;    C20 - C21    - C22   
    20     21     33      1    1.1769e+02    3.5556e+02 ;    C20 - C21    - H9    
    20     21     34      1    1.1769e+02    3.5556e+02 ;    C20 - C21    - H10   
    20     22     21      1    6.0000e+01    6.9881e+02 ;    C20 - C22    - C21   
    20     22     35      1    1.1769e+02    3.5556e+02 ;    C20 - C22    - H11   
    20     22     36      1    1.1769e+02    3.5556e+02 ;    C20 - C22    - H12   
    21     20     22      1    6.0000e+01    6.9881e+02 ;    C21 - C20    - C22   
    21     20     32      1    1.1769e+02    3.5556e+02 ;    C21 - C20    - H8    
    21     22     35      1    1.1769e+02    3.5556e+02 ;    C21 - C22    - H11   
    21     22     36      1    1.1769e+02    3.5556e+02 ;    C21 - C22    - H12   
    22     20     32      1    1.1769e+02    3.5556e+02 ;    C22 - C20    - H8    
    22     21     33      1    1.1769e+02    3.5556e+02 ;    C22 - C21    - H9    
    22     21     34      1    1.1769e+02    3.5556e+02 ;    C22 - C21    - H10   
    33     21     34      1    1.1443e+02    2.9330e+02 ;     H9 - C21    - H10   
    35     22     36      1    1.1443e+02    2.9330e+02 ;    H11 - C22    - H12   

[ dihedrals ] ; propers
; for gromacs 4.5 or higher, using funct 9
;    i      j      k      l   func   phase     kd      pn
     1      2      3      9      9   180.00  15.16700   2 ;     C4-    C5-    C6-    C1
     1      2      3     24      9   180.00  15.16700   2 ;     C4-    C5-    C6-     H
     1      5     13      4      9     0.00   3.34720   3 ;     C4-    C8-   N10-   C11
     1      5     13      4      9   180.00   4.18400   1 ;     C4-    C8-   N10-   C11
     1      5     13      4      9   180.00   4.72792   2 ;     C4-    C8-   N10-   C11
     1      5     13     29      9   180.00  10.46000   2 ;     C4-    C8-   N10-    H5
     1      8     10      9      9   180.00  15.16700   2 ;     C4-    C3-    C2-    C1
     1      8     10     28      9   180.00  15.16700   2 ;     C4-    C3-    C2-    H4
     2      1      5     12      9   180.00   2.42672   2 ;     C5-    C4-    C8-    O9
     2      1      5     13      9   180.00   8.88054   2 ;     C5-    C4-    C8-   N10
     2      1      8     10      9   180.00  15.16700   2 ;     C5-    C4-    C3-    C2
     2      1      8     23      9   180.00  15.16700   2 ;     C5-    C4-    C3-   CL2
     2      3      9     10      9   180.00  15.16700   2 ;     C5-    C6-    C1-    C2
     2      3      9     27      9   180.00  15.16700   2 ;     C5-    C6-    C1-    H3
     3      9     10      8      9   180.00  15.16700   2 ;     C6-    C1-    C2-    C3
     3      9     10     28      9   180.00  15.16700   2 ;     C6-    C1-    C2-    H4
     4      6      7     14      9   180.00  15.16700   2 ;    C11-   C12-   C13-   N14
     4      6      7     26      9   180.00  15.16700   2 ;    C11-   C12-   C13-    H2
     4     13      5     12      9   180.00  10.46000   2 ;    C11-   N10-    C8-    O9
     4     16     15     14      9   180.00  15.16700   2 ;    C11-   C16-   C15-   N14
     4     16     15     17      9   180.00  15.16700   2 ;    C11-   C16-   C15-   N17
     5      1      2      3      9   180.00  15.16700   2 ;     C8-    C4-    C5-    C6
     5      1      2     11      9   180.00  15.16700   2 ;     C8-    C4-    C5-   CL1
     5      1      8     10      9   180.00  15.16700   2 ;     C8-    C4-    C3-    C2
     5      1      8     23      9   180.00  15.16700   2 ;     C8-    C4-    C3-   CL2
     5     13      4      6      9   180.00   5.89944   2 ;     C8-   N10-   C11-   C12
     5     13      4     16      9   180.00   5.89944   2 ;     C8-   N10-   C11-   C16
     6      4     13     29      9   180.00   1.88280   2 ;    C12-   C11-   N10-    H5
     6      4     16     15      9   180.00  15.16700   2 ;    C12-   C11-   C16-   C15
     6      4     16     30      9   180.00  15.16700   2 ;    C12-   C11-   C16-    H6
     6      7     14     15      9   180.00  20.08320   2 ;    C12-   C13-   N14-   C15
     7      6      4     13      9   180.00  15.16700   2 ;    C13-   C12-   C11-   N10
     7      6      4     16      9   180.00  15.16700   2 ;    C13-   C12-   C11-   C16
     7     14     15     16      9   180.00  20.08320   2 ;    C13-   N14-   C15-   C16
     7     14     15     17      9   180.00  20.08320   2 ;    C13-   N14-   C15-   N17
     8      1      2      3      9   180.00  15.16700   2 ;     C3-    C4-    C5-    C6
     8      1      2     11      9   180.00  15.16700   2 ;     C3-    C4-    C5-   CL1
     8      1      5     12      9   180.00   2.42672   2 ;     C3-    C4-    C8-    O9
     8      1      5     13      9   180.00   8.88054   2 ;     C3-    C4-    C8-   N10
     8     10      9     27      9   180.00  15.16700   2 ;     C3-    C2-    C1-    H3
     9      3      2     11      9   180.00  15.16700   2 ;     C1-    C6-    C5-   CL1
     9     10      8     23      9   180.00  15.16700   2 ;     C1-    C2-    C3-   CL2
    10      9      3     24      9   180.00  15.16700   2 ;     C2-    C1-    C6-     H
    11      2      3     24      9   180.00  15.16700   2 ;    CL1-    C5-    C6-     H
    12      5     13     29      9     0.00   8.36800   1 ;     O9-    C8-   N10-    H5
    12      5     13     29      9   180.00  10.46000   2 ;     O9-    C8-   N10-    H5
    13      4      6     25      9   180.00  15.16700   2 ;    N10-   C11-   C12-    H1
    13      4     16     15      9   180.00  15.16700   2 ;    N10-   C11-   C16-   C15
    13      4     16     30      9   180.00  15.16700   2 ;    N10-   C11-   C16-    H6
    14      7      6     25      9   180.00  15.16700   2 ;    N14-   C13-   C12-    H1
    14     15     16     30      9   180.00  15.16700   2 ;    N14-   C15-   C16-    H6
    14     15     17     18      9   180.00   1.88280   2 ;    N14-   C15-   N17-   C18
    14     15     17     31      9   180.00   1.88280   2 ;    N14-   C15-   N17-    H7
    15     14      7     26      9   180.00  20.08320   2 ;    C15-   N14-   C13-    H2
    15     17     18     19      9   180.00  10.46000   2 ;    C15-   N17-   C18-   O19
    15     17     18     20      9   180.00  10.46000   2 ;    C15-   N17-   C18-   C20
    16      4      6     25      9   180.00  15.16700   2 ;    C16-   C11-   C12-    H1
    16      4     13     29      9   180.00   1.88280   2 ;    C16-   C11-   N10-    H5
    16     15     17     18      9   180.00   5.89944   2 ;    C16-   C15-   N17-   C18
    16     15     17     31      9   180.00   1.88280   2 ;    C16-   C15-   N17-    H7
    17     15     16     30      9   180.00  15.16700   2 ;    N17-   C15-   C16-    H6
    17     18     20     21      9   180.00   0.00000   2 ;    N17-   C18-   C20-   C21
    17     18     20     22      9   180.00   0.00000   2 ;    N17-   C18-   C20-   C22
    17     18     20     32      9   180.00   0.00000   2 ;    N17-   C18-   C20-    H8
    18     20     21     22      9     0.00   0.65084   3 ;    C18-   C20-   C21-   C22
    18     20     21     33      9     0.00   0.65084   3 ;    C18-   C20-   C21-    H9
    18     20     21     34      9     0.00   0.65084   3 ;    C18-   C20-   C21-   H10
    18     20     22     21      9     0.00   0.65084   3 ;    C18-   C20-   C22-   C21
    18     20     22     35      9     0.00   0.65084   3 ;    C18-   C20-   C22-   H11
    18     20     22     36      9     0.00   0.65084   3 ;    C18-   C20-   C22-   H12
    19     18     17     31      9     0.00   8.36800   1 ;    O19-   C18-   N17-    H7
    19     18     17     31      9   180.00  10.46000   2 ;    O19-   C18-   N17-    H7
    19     18     20     21      9   180.00   0.00000   2 ;    O19-   C18-   C20-   C21
    19     18     20     22      9   180.00   0.00000   2 ;    O19-   C18-   C20-   C22
    19     18     20     32      9   180.00   0.00000   2 ;    O19-   C18-   C20-    H8
    20     18     17     31      9   180.00  10.46000   2 ;    C20-   C18-   N17-    H7
    20     21     22     35      9     0.00   0.65084   3 ;    C20-   C21-   C22-   H11
    20     21     22     36      9     0.00   0.65084   3 ;    C20-   C21-   C22-   H12
    20     22     21     33      9     0.00   0.65084   3 ;    C20-   C22-   C21-    H9
    20     22     21     34      9     0.00   0.65084   3 ;    C20-   C22-   C21-   H10
    21     20     22     35      9     0.00   0.65084   3 ;    C21-   C20-   C22-   H11
    21     20     22     36      9     0.00   0.65084   3 ;    C21-   C20-   C22-   H12
    21     22     20     32      9     0.00   0.65084   3 ;    C21-   C22-   C20-    H8
    22     20     21     33      9     0.00   0.65084   3 ;    C22-   C20-   C21-    H9
    22     20     21     34      9     0.00   0.65084   3 ;    C22-   C20-   C21-   H10
    22     21     20     32      9     0.00   0.65084   3 ;    C22-   C21-   C20-    H8
    23      8     10     28      9   180.00  15.16700   2 ;    CL2-    C3-    C2-    H4
    24      3      9     27      9   180.00  15.16700   2 ;      H-    C6-    C1-    H3
    25      6      7     26      9   180.00  15.16700   2 ;     H1-   C12-   C13-    H2
    27      9     10     28      9   180.00  15.16700   2 ;     H3-    C1-    C2-    H4
    32     20     21     33      9     0.00   0.65084   3 ;     H8-   C20-   C21-    H9
    32     20     21     34      9     0.00   0.65084   3 ;     H8-   C20-   C21-   H10
    32     20     22     35      9     0.00   0.65084   3 ;     H8-   C20-   C22-   H11
    32     20     22     36      9     0.00   0.65084   3 ;     H8-   C20-   C22-   H12
    33     21     22     35      9     0.00   0.65084   3 ;     H9-   C21-   C22-   H11
    33     21     22     36      9     0.00   0.65084   3 ;     H9-   C21-   C22-   H12
    34     21     22     35      9     0.00   0.65084   3 ;    H10-   C21-   C22-   H11
    34     21     22     36      9     0.00   0.65084   3 ;    H10-   C21-   C22-   H12

[ dihedrals ] ; impropers
; treated as propers in GROMACS to use correct AMBER analytical function
;    i      j      k      l   func   phase     kd      pn
     1      3      2     11      4   180.00   4.60240   2 ;     C4-    C6-    C5-   CL1
     1     10      8     23      4   180.00   4.60240   2 ;     C4-    C2-    C3-   CL2
     1     13      5     12      4   180.00  43.93200   2 ;     C4-   N10-    C8-    O9
     2      9      3     24      4   180.00   4.60240   2 ;     C5-    C1-    C6-     H
     3     10      9     27      4   180.00   4.60240   2 ;     C6-    C2-    C1-    H3
     4      7      6     25      4   180.00   4.60240   2 ;    C11-   C13-   C12-    H1
     4     15     16     30      4   180.00   4.60240   2 ;    C11-   C15-   C16-    H6
     5      4     13     29      4   180.00   4.60240   2 ;     C8-   C11-   N10-    H5
     6     16      4     13      4   180.00   4.60240   2 ;    C12-   C16-   C11-   N10
     6     26      7     14      4   180.00   4.60240   2 ;    C12-    H2-   C13-   N14
     8      1      2      5      4   180.00   4.60240   2 ;     C3-    C4-    C5-    C8
     8      9     10     28      4   180.00   4.60240   2 ;     C3-    C1-    C2-    H4
    16     14     15     17      4   180.00   4.60240   2 ;    C16-   N14-   C15-   N17
    18     15     17     31      4   180.00   4.60240   2 ;    C18-   C15-   N17-    H7
    20     17     18     19      4   180.00  43.93200   2 ;    C20-   N17-   C18-   O19
