[ atomtypes ]
;name   bond_type     mass     charge   ptype   sigma         epsilon
 ca       ca          0.00000  0.00000   A     3.31521e-01   4.13379e-01
 c        c           0.00000  0.00000   A     3.31521e-01   4.13379e-01
 cl       cl          0.00000  0.00000   A     3.46595e-01   1.10374e+00
 o        o           0.00000  0.00000   A     3.04812e-01   6.12119e-01
 ns       ns          0.00000  0.00000   A     3.26995e-01   4.91202e-01
 nb       nb          0.00000  0.00000   A     3.38417e-01   3.93714e-01
 cx       cx          0.00000  0.00000   A     3.39771e-01   4.51035e-01
 cg       cg          0.00000  0.00000   A     3.47896e-01   6.67766e-01
 n1       n1          0.00000  0.00000   A     3.27352e-01   4.59403e-01
 ha       ha          0.00000  0.00000   A     2.62548e-01   6.73624e-02
 h4       h4          0.00000  0.00000   A     2.53639e-01   6.73624e-02
 hn       hn          0.00000  0.00000   A     1.10650e-01   4.18400e-02
 hc       hc          0.00000  0.00000   A     2.60018e-01   8.70272e-02
