ligand_0X6_h.pdb
    37
  -9.6390000 -10.8520000 -17.2860000  -4.6160000  -4.8750000 -16.1640000
  -8.8460000  -9.7030000 -17.2500000  -8.7340000  -8.9640000 -16.0700000
  -7.3100000  -4.5030000 -15.4890000  -7.5980000  -6.9540000 -15.1290000
  -6.7500000  -5.7940000 -15.4840000  -6.5250000  -3.4120000 -15.8140000
  -5.1770000  -3.5900000 -16.1520000 -10.3280000 -11.2080000 -16.1990000
  -9.4870000  -9.3840000 -14.9550000 -10.2740000 -10.5230000 -15.0600000
  -7.9330000  -7.8120000 -16.1230000  -7.9630000  -7.0850000 -13.9710000
  -5.3980000  -5.9700000 -15.8370000  -4.6910000  -7.5500000 -15.8820000
  -4.3670000  -2.4620000 -16.4880000  -3.7160000  -1.5720000 -16.7520000
  -8.9850000  -4.2690000 -15.0940000  -9.7530000 -11.6350000 -18.4470000
  -8.7770000 -11.8630000 -19.3710000  -7.6650000 -11.3590000 -19.2850000
  -9.1230000 -12.7580000 -20.5430000  -8.4290000 -12.5480000 -21.8920000
  -8.0810000 -13.7660000 -21.0310000  -3.6240000  -5.0040000 -16.4160000
  -8.3410000  -9.3990000 -18.0970000  -6.9330000  -2.4640000 -15.8080000
  -9.4540000  -8.8520000 -14.0720000 -10.8230000 -10.8410000 -14.2460000
  -7.5620000  -7.5970000 -17.0090000 -10.6250000 -12.0620000 -18.6100000
 -10.1430000 -12.8100000 -20.2240000  -8.9780000 -12.6750000 -22.8020000
  -7.8700000 -11.7530000 -22.3400000  -7.1280000 -13.8260000 -20.5490000
  -8.0680000 -14.8240000 -21.1880000
