%VERSION  VERSION_STAMP = V0001.000  DATE = 12/16/25  17:11:18                  
%FLAG TITLE                                                                     
%FORMAT(20a4)                                                                   
ligand_0X6_h.pdb                                                                
%FLAG POINTERS                                                                  
%FORMAT(10I8)                                                                   
      37      12      12      27      27      38      59      56       0       0
     187       1      27      38      56      15      25      15      13       0
       0       0       0       0       0       0       0       0      37       0
       0
%FLAG ATOM_NAME                                                                 
%FORMAT(20a4)                                                                   
C4  C14 C5  C6  C11 C8  C10 C12 C13 N3  C1  C2  N7  O9  C15 Cl1 C17 N18 Cl2 N20 
C21 O22 C23 C24 C25 H   H1  H2  H3  H4  H5  H6  H7  H8  H9  H10 H11 
%FLAG CHARGE                                                                    
%FORMAT(5E16.8)                                                                 
  1.00441318E+01 -1.73111850E+00 -5.80015809E+00  2.25227628E+00  8.36403570E-01
  1.25496980E+01 -2.27049858E+00 -1.73111850E+00  4.19112900E-01 -1.33751682E+01
 -5.50860129E+00  8.11256796E+00 -8.36585793E+00 -9.95119803E+00  8.36403570E-01
 -8.36403570E-01  4.04170614E+00 -6.04615914E+00 -8.36403570E-01 -9.97488702E+00
  1.27756545E+01 -1.08076461E+01 -4.18566231E+00 -1.88418582E+00 -1.88418582E+00
  3.08867985E+00  3.26179170E+00  3.08867985E+00  3.31645860E+00  4.93824330E-01
  6.02247015E+00  6.07713705E+00  1.79854101E+00  1.54342881E+00  1.54342881E+00
  1.54342881E+00  1.54342881E+00
%FLAG ATOMIC_NUMBER                                                             
%FORMAT(10I8)                                                                   
       6       6       6       6       6       6       6       6       6       7
       6       6       7       8       6      17       6       7      17       7
       6       8       6       6       6       1       1       1       1       1
       1       1       1       1       1       1       1
%FLAG MASS                                                                      
%FORMAT(5E16.8)                                                                 
  1.20100000E+01  1.20100000E+01  1.20100000E+01  1.20100000E+01  1.20100000E+01
  1.20100000E+01  1.20100000E+01  1.20100000E+01  1.20100000E+01  1.40100000E+01
  1.20100000E+01  1.20100000E+01  1.40100000E+01  1.60000000E+01  1.20100000E+01
  3.54500000E+01  1.20100000E+01  1.40100000E+01  3.54500000E+01  1.40100000E+01
  1.20100000E+01  1.60000000E+01  1.20100000E+01  1.20100000E+01  1.20100000E+01
  1.00800000E+00  1.00800000E+00  1.00800000E+00  1.00800000E+00  1.00800000E+00
  1.00800000E+00  1.00800000E+00  1.00800000E+00  1.00800000E+00  1.00800000E+00
  1.00800000E+00  1.00800000E+00
%FLAG ATOM_TYPE_INDEX                                                           
%FORMAT(10I8)                                                                   
       1       1       1       1       1       1       1       1       1       2
       1       1       3       4       1       5       6       7       5       3
       1       4       8       8       8       9       9       9       9      10
      11      11      12      12      12      12      12
%FLAG NUMBER_EXCLUDED_ATOMS                                                     
%FORMAT(10I8)                                                                   
      13      11      12      12      11       9      10       7       7       8
       6       4       5       2       4       1       3       1       1       8
      10       5       8       6       5       1       1       1       1       1
       1       1       4       3       2       1       1
%FLAG NONBONDED_PARM_INDEX                                                      
%FORMAT(10I8)                                                                   
       1       2       4       7      11      16      22      29      37      46
      56      67       2       3       5       8      12      17      23      30
      38      47      57      68       4       5       6       9      13      18
      24      31      39      48      58      69       7       8       9      10
      14      19      25      32      40      49      59      70      11      12
      13      14      15      20      26      33      41      50      60      71
      16      17      18      19      20      21      27      34      42      51
      61      72      22      23      24      25      26      27      28      35
      43      52      62      73      29      30      31      32      33      34
      35      36      44      53      63      74      37      38      39      40
      41      42      43      44      45      54      64      75      46      47
      48      49      50      51      52      53      54      55      65      76
      56      57      58      59      60      61      62      63      64      65
      66      77      67      68      69      70      71      72      73      74
      75      76      77      78
%FLAG RESIDUE_LABEL                                                             
%FORMAT(20a4)                                                                   
0X6 
%FLAG RESIDUE_POINTER                                                           
%FORMAT(10I8)                                                                   
       1
%FLAG BOND_FORCE_CONSTANT                                                       
%FORMAT(5E16.8)                                                                 
  3.06730000E+02  3.54250000E+02  3.86490000E+02  3.60690000E+02  1.87980000E+02
  3.36070000E+02  2.62840000E+02  5.90600000E+02  3.17410000E+02  3.56820000E+02
  4.73590000E+02  7.44030000E+02  2.52530000E+02  2.48860000E+02  3.59910000E+02
%FLAG BOND_EQUIL_VALUE                                                          
%FORMAT(5E16.8)                                                                 
  1.40700000E+00  1.39860000E+00  1.33920000E+00  1.08600000E+00  1.75720000E+00
  1.37980000E+00  1.49070000E+00  1.21900000E+00  1.43180000E+00  1.08850000E+00
  1.01320000E+00  1.16430000E+00  1.50350000E+00  1.50820000E+00  1.08650000E+00
%FLAG ANGLE_FORCE_CONSTANT                                                      
%FORMAT(5E16.8)                                                                 
  7.66200000E+01  5.66800000E+01  6.36700000E+01  4.49000000E+01  8.31500000E+01
  6.28500000E+01  6.40600000E+01  6.73400000E+01  6.81700000E+01  6.14400000E+01
  5.73700000E+01  6.70600000E+01  7.79600000E+01  5.83000000E+01  7.51400000E+01
  5.01000000E+01  4.48000000E+01  8.72100000E+01  6.69000000E+01  5.96500000E+01
  4.28000000E+01  7.74200000E+01  8.35100000E+01  4.24900000E+01  3.50500000E+01
%FLAG ANGLE_EQUIL_VALUE                                                         
%FORMAT(5E16.8)                                                                 
  2.22547028E+00  2.02528093E+00  2.09474507E+00  2.09230160E+00  2.04622489E+00
  2.09875933E+00  2.08357495E+00  2.09771213E+00  2.14570870E+00  2.10015559E+00
  2.04657396E+00  2.00870030E+00  2.13977458E+00  3.13321642E+00  1.97710982E+00
  2.02493187E+00  2.09998106E+00  2.14762857E+00  1.99753019E+00  2.05931487E+00
  2.03557838E+00  2.14186898E+00  1.04719800E+00  2.05407888E+00  1.99718112E+00
%FLAG DIHEDRAL_FORCE_CONSTANT                                                   
%FORMAT(5E16.8)                                                                 
  2.50000000E+00  3.62500000E+00  4.80000000E+00  0.00000000E+00  1.41000000E+00
  4.50000000E-01  1.00000000E+00  1.13000000E+00  8.00000000E-01  2.12250000E+00
  5.80000000E-01  2.00000000E+00  1.55555556E-01  1.10000000E+00  1.05000000E+01
%FLAG DIHEDRAL_PERIODICITY                                                      
%FORMAT(5E16.8)                                                                 
  2.00000000E+00  2.00000000E+00  2.00000000E+00  2.00000000E+00  2.00000000E+00
  2.00000000E+00  1.00000000E+00  2.00000000E+00  3.00000000E+00  2.00000000E+00
  2.00000000E+00  1.00000000E+00  3.00000000E+00  2.00000000E+00  2.00000000E+00
%FLAG DIHEDRAL_PHASE                                                            
%FORMAT(5E16.8)                                                                 
  3.14159400E+00  3.14159400E+00  3.14159400E+00  3.14159400E+00  3.14159400E+00
  3.14159400E+00  3.14159400E+00  3.14159400E+00  0.00000000E+00  3.14159400E+00
  3.14159400E+00  0.00000000E+00  0.00000000E+00  3.14159400E+00  3.14159400E+00
%FLAG SCEE_SCALE_FACTOR                                                         
%FORMAT(5E16.8)                                                                 
  1.20000000E+00  1.20000000E+00  1.20000000E+00  1.20000000E+00  1.20000000E+00
  1.20000000E+00  1.20000000E+00  1.20000000E+00  1.20000000E+00  1.20000000E+00
  1.20000000E+00  1.20000000E+00  1.20000000E+00  0.00000000E+00  0.00000000E+00
%FLAG SCNB_SCALE_FACTOR                                                         
%FORMAT(5E16.8)                                                                 
  2.00000000E+00  2.00000000E+00  2.00000000E+00  2.00000000E+00  2.00000000E+00
  2.00000000E+00  2.00000000E+00  2.00000000E+00  2.00000000E+00  2.00000000E+00
  2.00000000E+00  2.00000000E+00  2.00000000E+00  0.00000000E+00  0.00000000E+00
%FLAG SOLTY                                                                     
%FORMAT(5E16.8)                                                                 
  0.00000000E+00  0.00000000E+00  0.00000000E+00  0.00000000E+00  0.00000000E+00
  0.00000000E+00  0.00000000E+00  0.00000000E+00  0.00000000E+00  0.00000000E+00
  0.00000000E+00  0.00000000E+00  0.00000000E+00
%FLAG LENNARD_JONES_ACOEF                                                       
%FORMAT(5E16.8)                                                                 
  6.96551276E+05  7.69642101E+05  8.49322032E+05  6.99381362E+05  7.73425391E+05
  7.01825028E+05  5.17507491E+05  5.74782316E+05  5.17814271E+05  3.76435470E+05
  1.49062160E+06  1.64251971E+06  1.49942414E+06  1.11993097E+06  3.17107030E+06
  1.18640578E+06  1.30700124E+06  1.19359607E+06  8.92208123E+05  2.52263692E+06
  2.00671338E+06  6.80770393E+05  7.52793431E+05  6.83179716E+05  5.04173226E+05
  1.45931156E+06  1.16165080E+06  6.65027384E+05  8.43969952E+05  9.31115275E+05
  8.48258258E+05  6.30925504E+05  1.80018612E+06  1.43239677E+06  8.25619280E+05
  1.02073671E+06  7.52549148E+04  8.43518904E+04  7.48403283E+04  5.27277400E+04
  1.66104821E+05  1.32549375E+05  7.29041169E+04  9.27554496E+04  6.90855956E+03
  6.27751680E+04  7.05112106E+04  6.23418310E+04  4.36069364E+04  1.39186903E+05
  1.11111404E+05  6.07357264E+04  7.75673747E+04  5.62610481E+03  4.56536476E+03
  1.71458823E+03  2.01475241E+03  1.65195713E+03  9.87857350E+02  4.18912581E+03
  3.37137075E+03  1.61327254E+03  2.23577481E+03  9.04434904E+01  6.76796831E+01
  1.34728399E-01  8.12662403E+04  9.11435380E+04  8.07866982E+04  5.68021765E+04
  1.79601155E+05  1.43334551E+05  7.86991059E+04  1.00235148E+05  7.41026906E+03
  6.02863188E+03  9.47421632E+01  7.94617769E+03
%FLAG LENNARD_JONES_BCOEF                                                       
%FORMAT(5E16.8)                                                                 
  5.24668528E+02  5.44830041E+02  5.65406768E+02  5.48900066E+02  5.70234696E+02
  5.74088001E+02  4.98871431E+02  5.19385932E+02  5.21008860E+02  4.69350655E+02
  9.81118883E+02  1.01742263E+03  1.02737257E+03  9.38113535E+02  1.82923847E+03
  7.71958727E+02  8.00430491E+02  8.08414196E+02  7.38469198E+02  1.43891218E+03
  1.13185062E+03  5.32561965E+02  5.53242961E+02  5.57012686E+02  5.05570298E+02
  9.96720270E+02  7.84289859E+02  5.40444287E+02  5.90251928E+02  6.12468585E+02
  6.17825399E+02  5.62969425E+02  1.10195051E+03  8.66911122E+02  5.99411656E+02
  6.63431737E+02  1.09570372E+02  1.14599119E+02  1.14083104E+02  1.01173582E+02
  2.08087638E+02  1.63939471E+02  1.10729433E+02  1.24325688E+02  2.10929191E+01
  1.00073628E+02  1.04776275E+02  1.04122183E+02  9.20079458E+01  1.90482178E+02
  1.50097689E+02  1.01066951E+02  1.13692208E+02  1.90347353E+01  1.71467049E+01
  1.46824710E+01  1.57231024E+01  1.50468782E+01  1.22938581E+01  2.93366416E+01
  2.32108730E+01  1.46229317E+01  1.71355763E+01  2.14252117E+00  1.85338491E+00
  7.34107347E-02  1.21392023E+02  1.27000718E+02  1.26366740E+02  1.11953944E+02
  2.30684859E+02  1.81752124E+02  1.22653886E+02  1.37787728E+02  2.32899892E+01
  2.10068861E+01  2.33785449E+00  2.57122925E+01
%FLAG BONDS_INC_HYDROGEN                                                        
%FORMAT(10I8)                                                                   
       3      75       4       6      78       4      21      81       4      30
      84       4      33      87      10      36      90      11      57      93
      11      66      96      15      69      99      15      69     102      15
      72     105      15      72     108      15
%FLAG BONDS_WITHOUT_HYDROGEN                                                    
%FORMAT(10I8)                                                                   
       0      57       1       0       6       2       0      27       3       3
      24       2       3      42       2       6       9       2       9      36
       1       9      30       2      12      21       2      12      18       2
      12      54       5      15      36       6      15      18       7      15
      39       8      18      42       2      21      24       2      24      48
       9      27      33       3      30      33       2      42      45       5
      48      51      12      57      60       6      60      66      13      60
      63       8      66      69      14      66      72      14      69      72
      14
%FLAG ANGLES_INC_HYDROGEN                                                       
%FORMAT(10I8)                                                                   
       0      57      93       2       0       6      78       4       9       6
      78       4       9      36      90       2       9      30      84       4
      12      21      81       4      15      36      90      11      24       3
      75       4      24      21      81       4      27      33      87      16
      30      33      87      17      33      30      84       4      42       3
      75       4      60      57      93      11      60      66      96      21
      66      69      99      24      66      69     102      24      66      72
     105      24      66      72     108      24      69      66      96      24
      69      72     105      24      69      72     108      24      72      66
      96      24      72      69      99      24      72      69     102      24
      99      69     102      25     105      72     108      25
%FLAG ANGLES_WITHOUT_HYDROGEN                                                   
%FORMAT(10I8)                                                                   
       0      57      60       1       0       6       9       3       0      27
      33       5       3      24      21       3       3      24      48       6
       3      42      18       3       3      42      45       7       6       0
      57       8       6       0      27       9       6       9      36       8
       6       9      30       3       9      36      15       1       9      30
      33       3      12      21      24       3      12      18      15      10
      12      18      42       3      15      18      42      10      18      12
      21       3      18      12      54       7      18      15      36      12
      18      15      39      13      18      42      45       7      21      12
      54       7      21      24      48       6      24       3      42       3
      24      48      51      14      27       0      57      15      27      33
      30       9      30       9      36       8      36      15      39      18
      57      60      66      19      57      60      63      18      60      66
      69      20      60      66      72      20      63      60      66      22
      66      69      72      23      66      72      69      23      69      66
      72      23
%FLAG DIHEDRALS_INC_HYDROGEN                                                    
%FORMAT(10I8)                                                                   
       0      27      33      87       3       3      24      21      81       2
       6       0      57      93       6       6       9      36      90       6
       6       9      30      84       2       9      30      33      87       2
      18      12      21      81       2      18      15      36      90       1
      18      42       3      75       2      21      24       3      75       2
      27       0      57      93       6      27       0       6      78       2
      27      33      30      84       2      30       9       6      78       2
      30       9      36      90       6      36       9       6      78       2
      36       9      30      84       2      39      15      36      90      12
      39      15     -36      90       1      45      42       3      75       2
      48      24       3      75       2      48      24      21      81       2
      54      12      21      81       2      57       0       6      78       2
      57      60      66      96       4      60      66      69      99      13
      60      66      69     102      13      60      66      72     105      13
      60      66      72     108      13      63      60      57      93      12
      63      60     -57      93       1      63      60      66      96       4
      66      60      57      93       1      66      69     -72     105      13
      66      69     -72     108      13      66      72     -69      99      13
      66      72     -69     102      13      69      66     -72     105      13
      69      66     -72     108      13      69      72     -66      96      13
      72      66     -69      99      13      72      66     -69     102      13
      72      69     -66      96      13      84      30      33      87       2
      96      66      69      99      13      96      66      69     102      13
      96      66      72     105      13      96      66      72     108      13
      99      69      72     105      13      99      69      72     108      13
     102      69      72     105      13     102      69      72     108      13
      24      42      -3     -75      14       0       9      -6     -78      14
      12      24     -21     -81      14       9      33     -30     -84      14
      30      87     -33     -27      14      15       9     -36     -90      14
      60       0     -57     -93      14
%FLAG DIHEDRALS_WITHOUT_HYDROGEN                                                
%FORMAT(10I8)                                                                   
       0      57      60      66       1       0      57      60      63       1
       0       6       9      36       2       0       6       9      30       2
       0      27     -33      30       3       3      24      21      12       2
       3      24      48      51       4       3      42     -18      12       2
       3      42      18      15       2       6       0      57      60       5
       6       0      27      33       3       6       9      36      15       5
       6       9     -30      33       2      57       0       6       9       2
      27       0       6       9       2       9      36      15      18       7
       9      36     -15      18       8       9      36     -15      18       9
       9      36      15      39       1       9      30     -33      27       2
      12      21      24      48       2      12      18      15      36      10
      12      18      15      39      11      12      18      42      45       2
      15      36       9      30       5      15      18      12      21       2
      15      18      12      54       2      15      18      42      45       2
      18      12      21      24       2      18      42      -3      24       2
      21      12      18      42       2      21      24      -3      42       2
      21      24      48      51       4      24       3      42      45       2
      24      21      12      54       2      27       0      57      60       6
      57       0      27      33       3      33      30       9      36       2
      36      15      18      42      10      39      15      18      42      11
      42       3      24      48       2      42      18      12      54       2
      57      60      66      69       4      57      60      66      72       4
      60      66     -69      72      13      60      66     -72      69      13
      63      60      66      69       4      63      60      66      72       4
      57       0     -27      -6      14       6      30      -9     -36      14
      18      21     -12     -54      14      18      36     -15     -39      15
      15      12     -18     -42      14       3      21     -24     -48      14
       3      18     -42     -45      14      66      57     -60     -63      15
%FLAG EXCLUDED_ATOMS_LIST                                                       
%FORMAT(10I8)                                                                   
       3       4      10      11      12      13      20      21      22      23
      27      30      32       5       6       7       8       9      15      16
      17      18      26      28       4       6      10      11      12      13
      20      21      27      29      31      32       6       7      10      11
      12      13      14      20      27      29      30      31       6       7
       8       9      13      14      15      16      17      19      28       7
       8      11      13      14      15      16      19      31       8       9
      13      14      15      16      19      26      28      31       9      15
      17      18      19      26      28      15      16      17      18      19
      26      28      11      12      20      21      27      29      30      32
      12      13      27      29      30      31      13      20      29      30
      14      15      27      29      31      15      31      16      17      19
      26      26      18      26      28       0      28      21      22      23
      24      25      27      32      33      22      23      24      25      32
      33      34      35      36      37      23      24      25      32      33
      24      25      32      33      34      35      36      37      25      33
      34      35      36      37      33      34      35      36      37       0
       0       0      30       0       0       0      34      35      36      37
      35      36      37      36      37      37       0
%FLAG HBOND_ACOEF                                                               
%FORMAT(5E16.8)                                                                 

%FLAG HBOND_BCOEF                                                               
%FORMAT(5E16.8)                                                                 

%FLAG HBCUT                                                                     
%FORMAT(5E16.8)                                                                 

%FLAG AMBER_ATOM_TYPE                                                           
%FORMAT(20a4)                                                                   
ca  ca  ca  ca  ca  c   ca  ca  ca  nb  ca  ca  ns  o   ca  cl  cg  n1  cl  ns  
c   o   cx  cx  cx  ha  ha  ha  ha  h4  hn  hn  hc  hc  hc  hc  hc  
%FLAG TREE_CHAIN_CLASSIFICATION                                                 
%FORMAT(20a4)                                                                   
BLA BLA BLA BLA BLA BLA BLA BLA BLA BLA BLA BLA BLA BLA BLA BLA BLA BLA BLA BLA 
BLA BLA BLA BLA BLA BLA BLA BLA BLA BLA BLA BLA BLA BLA BLA BLA BLA 
%FLAG JOIN_ARRAY                                                                
%FORMAT(10I8)                                                                   
       0       0       0       0       0       0       0       0       0       0
       0       0       0       0       0       0       0       0       0       0
       0       0       0       0       0       0       0       0       0       0
       0       0       0       0       0       0       0
%FLAG IROTAT                                                                    
%FORMAT(10I8)                                                                   
       0       0       0       0       0       0       0       0       0       0
       0       0       0       0       0       0       0       0       0       0
       0       0       0       0       0       0       0       0       0       0
       0       0       0       0       0       0       0
%FLAG RADIUS_SET                                                                
%FORMAT(1a80)                                                                   
modified Bondi radii (mbondi)                                                   
%FLAG RADII                                                                     
%FORMAT(5E16.8)                                                                 
  1.70000000E+00  1.70000000E+00  1.70000000E+00  1.70000000E+00  1.70000000E+00
  1.70000000E+00  1.70000000E+00  1.70000000E+00  1.70000000E+00  1.55000000E+00
  1.70000000E+00  1.70000000E+00  1.55000000E+00  1.50000000E+00  1.70000000E+00
  1.70000000E+00  1.70000000E+00  1.55000000E+00  1.70000000E+00  1.55000000E+00
  1.70000000E+00  1.50000000E+00  1.70000000E+00  1.70000000E+00  1.70000000E+00
  1.30000000E+00  1.30000000E+00  1.30000000E+00  1.30000000E+00  1.30000000E+00
  1.30000000E+00  1.30000000E+00  1.30000000E+00  1.30000000E+00  1.30000000E+00
  1.30000000E+00  1.30000000E+00
%FLAG SCREEN                                                                    
%FORMAT(5E16.8)                                                                 
  7.20000000E-01  7.20000000E-01  7.20000000E-01  7.20000000E-01  7.20000000E-01
  7.20000000E-01  7.20000000E-01  7.20000000E-01  7.20000000E-01  7.90000000E-01
  7.20000000E-01  7.20000000E-01  7.90000000E-01  8.50000000E-01  7.20000000E-01
  8.00000000E-01  7.20000000E-01  7.90000000E-01  8.00000000E-01  7.90000000E-01
  7.20000000E-01  8.50000000E-01  7.20000000E-01  7.20000000E-01  7.20000000E-01
  8.50000000E-01  8.50000000E-01  8.50000000E-01  8.50000000E-01  8.50000000E-01
  8.50000000E-01  8.50000000E-01  8.50000000E-01  8.50000000E-01  8.50000000E-01
  8.50000000E-01  8.50000000E-01
%FLAG IPOL                                                                      
%FORMAT(1I8)                                                                    
       0
